system
  650
    1UNL     C1    1   0.632   1.827   0.409
    1UNL     C2    2   0.662   1.739   0.537
    1UNL     C3    3   0.555   1.636   0.569
    1UNL     C4    4   0.560   1.505   0.479
    1UNL     C5    5   0.685   1.417   0.491
    1UNL     C6    6   0.713   1.357   0.633
    1UNL     C7    7   0.604   1.263   0.685
    1UNL     C8    8   0.627   1.227   0.829
    1UNL     C9    9   0.592   1.335   0.931
    1UNL    C10   10   0.643   1.289   1.068
    1UNL     H1   11   0.656   1.771   0.322
    1UNL     H2   12   0.524   1.846   0.399
    1UNL     H3   13   0.694   1.923   0.405
    1UNL     H4   14   0.764   1.694   0.542
    1UNL     H5   15   0.650   1.812   0.619
    1UNL     H6   16   0.560   1.607   0.674
    1UNL     H7   17   0.458   1.681   0.557
    1UNL     H8   18   0.475   1.445   0.495
    1UNL     H9   19   0.550   1.529   0.372
    1UNL    H10   20   0.769   1.466   0.445
    1UNL    H11   21   0.666   1.330   0.431
    1UNL    H12   22   0.736   1.446   0.699
    1UNL    H13   23   0.801   1.300   0.641
    1UNL    H14   24   0.501   1.308   0.678
    1UNL    H15   25   0.591   1.167   0.632
    1UNL    H16   26   0.732   1.198   0.851
    1UNL    H17   27   0.560   1.141   0.851
    1UNL    H18   28   0.624   1.436   0.913
    1UNL    H19   29   0.481   1.346   0.937
    1UNL    H20   30   0.607   1.371   1.136
    1UNL    H21   31   0.608   1.186   1.094
    1UNL    H22   32   0.749   1.293   1.077
    2UNL     C1   33   1.522   0.601   0.303
    2UNL     C2   34   1.596   0.740   0.303
    2UNL     C3   35   1.503   0.865   0.282
    2UNL     C4   36   1.437   0.904   0.413
    2UNL     C5   37   1.338   1.032   0.387
    2UNL     C6   38   1.212   1.040   0.482
    2UNL     C7   39   1.133   0.915   0.509
    2UNL     C8   40   1.086   0.847   0.384
    2UNL     C9   41   0.991   0.726   0.415
    2UNL    C10   42   0.935   0.657   0.288
    2UNL     H1   43   1.422   0.612   0.349
    2UNL     H2   44   1.506   0.565   0.201
    2UNL     H3   45   1.583   0.522   0.349
    2UNL     H4   46   1.660   0.764   0.394
    2UNL     H5   47   1.662   0.745   0.219
    2UNL     H6   48   1.553   0.952   0.250
    2UNL     H7   49   1.433   0.833   0.201
    2UNL     H8   50   1.379   0.815   0.449
    2UNL     H9   51   1.516   0.918   0.489
    2UNL    H10   52   1.312   1.044   0.281
    2UNL    H11   53   1.400   1.114   0.391
    2UNL    H12   54   1.137   1.114   0.456
    2UNL    H13   55   1.245   1.082   0.580
    2UNL    H14   56   1.182   0.833   0.565
    2UNL    H15   57   1.040   0.938   0.565
    2UNL    H16   58   1.174   0.814   0.328
    2UNL    H17   59   1.026   0.917   0.324
    2UNL    H18   60   1.045   0.656   0.480
    2UNL    H19   61   0.897   0.759   0.471
    2UNL    H20   62   1.011   0.602   0.237
    2UNL    H21   63   0.889   0.572   0.318
    2UNL    H22   64   0.865   0.720   0.228
    3UNL     C1   65   1.573   0.362   1.846
    3UNL     C2   66   1.425   0.376   1.812
    3UNL     C3   67   1.361   0.515   1.819
    3UNL     C4   68   1.215   0.524   1.773
    3UNL     C5   69   1.162   0.667   1.752
    3UNL     C6   70   1.204   0.781   1.853
    3UNL     C7   71   1.159   0.916   1.801
    3UNL     C8   72   1.012   0.939   1.761
    3UNL     C9   73   0.901   0.905   1.863
    3UNL    C10   74   0.927   0.970   2.008
    3UNL     H1   75   1.603   0.406   1.940
    3UNL     H2   76   1.599   0.259   1.831
    3UNL     H3   77   1.632   0.420   1.769
    3UNL     H4   78   1.420   0.344   1.705
    3UNL     H5   79   1.357   0.316   1.883
    3UNL     H6   80   1.369   0.554   1.921
    3UNL     H7   81   1.434   0.568   1.754
    3UNL     H8   82   1.199   0.459   1.680
    3UNL     H9   83   1.155   0.475   1.859
    3UNL    H10   84   1.054   0.665   1.741
    3UNL    H11   85   1.197   0.697   1.651
    3UNL    H12   86   1.310   0.777   1.863
    3UNL    H13   87   1.166   0.760   1.946
    3UNL    H14   88   1.195   0.989   1.879
    3UNL    H15   89   1.214   0.931   1.707
    3UNL    H16   90   0.988   0.872   1.678
    3UNL    H17   91   1.011   1.044   1.735
    3UNL    H18   92   0.804   0.930   1.819
    3UNL    H19   93   0.892   0.794   1.882
    3UNL    H20   94   0.846   0.951   2.085
    3UNL    H21   95   1.026   0.935   2.043
    3UNL    H22   96   0.937   1.078   1.999
    4UNL     C1   97   1.516   1.392   0.206
    4UNL     C2   98   1.374   1.344   0.161
    4UNL     C3   99   1.365   1.235   0.055
    4UNL     C4  100   1.442   1.269  -0.069
    4UNL     C5  101   1.437   1.162  -0.177
    4UNL     C6  102   1.512   1.029  -0.146
    4UNL     C7  103   1.474   0.926  -0.250
    4UNL     C8  104   1.554   0.790  -0.254
    4UNL     C9  105   1.529   0.696  -0.136
    4UNL    C10  106   1.630   0.578  -0.129
    4UNL     H1  107   1.509   1.446   0.301
    4UNL     H2  108   1.591   1.309   0.193
    4UNL     H3  109   1.544   1.466   0.129
    4UNL     H4  110   1.335   1.303   0.252
    4UNL     H5  111   1.321   1.434   0.132
    4UNL     H6  112   1.407   1.146   0.105
    4UNL     H7  113   1.263   1.201   0.034
    4UNL     H8  114   1.398   1.356  -0.113
    4UNL     H9  115   1.543   1.312  -0.048
    4UNL    H10  116   1.465   1.202  -0.273
    4UNL    H11  117   1.329   1.138  -0.182
    4UNL    H12  118   1.483   0.988  -0.047
    4UNL    H13  119   1.621   1.043  -0.139
    4UNL    H14  120   1.366   0.908  -0.243
    4UNL    H15  121   1.485   0.971  -0.350
    4UNL    H16  122   1.659   0.809  -0.273
    4UNL    H17  123   1.527   0.722  -0.339
    4UNL    H18  124   1.523   0.756  -0.045
    4UNL    H19  125   1.421   0.659  -0.154
    4UNL    H20  126   1.632   0.530  -0.037
    4UNL    H21  127   1.605   0.493  -0.194
    4UNL    H22  128   1.728   0.598  -0.166
    5UNL     C1  129   0.184   0.254   1.428
    5UNL     C2  130   0.322   0.247   1.496
    5UNL     C3  131   0.440   0.202   1.412
    5UNL     C4  132   0.484   0.296   1.299
    5UNL     C5  133   0.584   0.224   1.207
    5UNL     C6  134   0.637   0.317   1.099
    5UNL     C7  135   0.722   0.235   0.991
    5UNL     C8  136   0.787   0.330   0.893
    5UNL     C9  137   0.843   0.247   0.775
    5UNL    C10  138   0.900   0.328   0.651
    5UNL     H1  139   0.160   0.155   1.387
    5UNL     H2  140   0.099   0.277   1.495
    5UNL     H3  141   0.188   0.325   1.350
    5UNL     H4  142   0.350   0.347   1.541
    5UNL     H5  143   0.308   0.178   1.581
    5UNL     H6  144   0.529   0.188   1.470
    5UNL     H7  145   0.407   0.105   1.371
    5UNL     H8  146   0.393   0.299   1.236
    5UNL     H9  147   0.511   0.401   1.331
    5UNL    H10  148   0.532   0.141   1.153
    5UNL    H11  149   0.665   0.177   1.266
    5UNL    H12  150   0.698   0.398   1.143
    5UNL    H13  151   0.547   0.368   1.056
    5UNL    H14  152   0.800   0.164   1.039
    5UNL    H15  153   0.643   0.172   0.933
    5UNL    H16  154   0.876   0.363   0.950
    5UNL    H17  155   0.723   0.415   0.866
    5UNL    H18  156   0.935   0.191   0.809
    5UNL    H19  157   0.782   0.167   0.746
    5UNL    H20  158   0.889   0.268   0.556
    5UNL    H21  159   0.847   0.419   0.624
    5UNL    H22  160   1.000   0.357   0.671
    6UNL     C1  161   0.574   0.890   0.395
    6UNL     C2  162   0.435   0.823   0.404
    6UNL     C3  163   0.414   0.707   0.301
    6UNL     C4  164   0.284   0.643   0.316
    6UNL     C5  165   0.159   0.716   0.265
    6UNL     C6  166   0.146   0.732   0.109
    6UNL     C7  167   0.027   0.804   0.049
    6UNL     C8  168   0.033   0.816  -0.099
    6UNL     C9  169  -0.079   0.906  -0.145
    6UNL    C10  170  -0.109   0.908  -0.298
    6UNL     H1  171   0.660   0.814   0.396
    6UNL     H2  172   0.573   0.952   0.309
    6UNL     H3  173   0.592   0.962   0.484
    6UNL     H4  174   0.414   0.788   0.502
    6UNL     H5  175   0.367   0.909   0.381
    6UNL     H6  176   0.429   0.740   0.202
    6UNL     H7  177   0.490   0.627   0.332
    6UNL     H8  178   0.287   0.540   0.267
    6UNL     H9  179   0.263   0.610   0.418
    6UNL    H10  180   0.173   0.818   0.298
    6UNL    H11  181   0.071   0.683   0.309
    6UNL    H12  182   0.148   0.629   0.066
    6UNL    H13  183   0.240   0.772   0.058
    6UNL    H14  184  -0.070   0.762   0.084
    6UNL    H15  185   0.031   0.903   0.093
    6UNL    H16  186   0.013   0.718  -0.153
    6UNL    H17  187   0.127   0.847  -0.135
    6UNL    H18  188  -0.170   0.881  -0.095
    6UNL    H19  189  -0.063   1.009  -0.112
    6UNL    H20  190  -0.193   0.972  -0.323
    6UNL    H21  191  -0.018   0.958  -0.351
    6UNL    H22  192  -0.125   0.808  -0.335
    7UNL     C1  193   0.185   0.106   0.022
    7UNL     C2  194   0.204   0.192  -0.103
    7UNL     C3  195   0.336   0.262  -0.114
    7UNL     C4  196   0.358   0.363  -0.004
    7UNL     C5  197   0.475   0.467  -0.028
    7UNL     C6  198   0.450   0.600  -0.100
    7UNL     C7  199   0.564   0.709  -0.084
    7UNL     C8  200   0.556   0.835  -0.179
    7UNL     C9  201   0.578   0.793  -0.326
    7UNL    C10  202   0.536   0.899  -0.433
    7UNL     H1  203   0.099   0.041   0.028
    7UNL     H2  204   0.261   0.037   0.030
    7UNL     H3  205   0.197   0.162   0.117
    7UNL     H4  206   0.180   0.133  -0.191
    7UNL     H5  207   0.123   0.266  -0.097
    7UNL     H6  208   0.422   0.190  -0.132
    7UNL     H7  209   0.346   0.324  -0.208
    7UNL     H8  210   0.270   0.413   0.031
    7UNL     H9  211   0.386   0.302   0.078
    7UNL    H10  212   0.556   0.412  -0.075
    7UNL    H11  213   0.513   0.491   0.072
    7UNL    H12  214   0.359   0.649  -0.062
    7UNL    H13  215   0.435   0.585  -0.207
    7UNL    H14  216   0.572   0.737   0.020
    7UNL    H15  217   0.651   0.657  -0.118
    7UNL    H16  218   0.639   0.902  -0.144
    7UNL    H17  219   0.466   0.887  -0.172
    7UNL    H18  220   0.683   0.751  -0.351
    7UNL    H19  221   0.510   0.707  -0.350
    7UNL    H20  222   0.580   0.877  -0.524
    7UNL    H21  223   0.423   0.900  -0.436
    7UNL    H22  224   0.559   1.001  -0.400
    8UNL     C1  225   0.032   1.580   0.480
    8UNL     C2  226   0.177   1.586   0.436
    8UNL     C3  227   0.199   1.658   0.304
    8UNL     C4  228   0.178   1.818   0.324
    8UNL     C5  229   0.206   1.873   0.181
    8UNL     C6  230   0.231   2.028   0.167
    8UNL     C7  231   0.357   2.080   0.235
    8UNL     C8  232   0.367   2.232   0.230
    8UNL     C9  233   0.505   2.280   0.291
    8UNL    C10  234   0.540   2.426   0.290
    8UNL     H1  235  -0.022   1.514   0.411
    8UNL     H2  236   0.027   1.520   0.573
    8UNL     H3  237  -0.016   1.673   0.510
    8UNL     H4  238   0.231   1.630   0.519
    8UNL     H5  239   0.219   1.484   0.436
    8UNL     H6  240   0.301   1.650   0.270
    8UNL     H7  241   0.125   1.610   0.231
    8UNL     H8  242   0.079   1.842   0.354
    8UNL     H9  243   0.248   1.868   0.393
    8UNL    H10  244   0.119   1.855   0.114
    8UNL    H11  245   0.296   1.825   0.139
    8UNL    H12  246   0.144   2.084   0.203
    8UNL    H13  247   0.248   2.057   0.063
    8UNL    H14  248   0.345   2.050   0.339
    8UNL    H15  249   0.452   2.033   0.208
    8UNL    H16  250   0.286   2.280   0.284
    8UNL    H17  251   0.343   2.263   0.129
    8UNL    H18  252   0.515   2.248   0.392
    8UNL    H19  253   0.577   2.218   0.232
    8UNL    H20  254   0.546   2.461   0.187
    8UNL    H21  255   0.467   2.494   0.337
    8UNL    H22  256   0.632   2.446   0.345
    9UNL     C1  257   1.132   1.572   0.399
    9UNL     C2  258   1.115   1.657   0.265
    9UNL     C3  259   0.969   1.696   0.237
    9UNL     C4  260   0.946   1.749   0.092
    9UNL     C5  261   0.806   1.814   0.080
    9UNL     C6  262   0.779   1.868  -0.056
    9UNL     C7  263   0.621   1.893  -0.081
    9UNL     C8  264   0.581   1.957  -0.215
    9UNL     C9  265   0.616   2.110  -0.227
    9UNL    C10  266   0.523   2.191  -0.316
    9UNL     H1  267   1.232   1.544   0.419
    9UNL     H2  268   1.104   1.627   0.486
    9UNL     H3  269   1.066   1.485   0.403
    9UNL     H4  270   1.177   1.747   0.265
    9UNL     H5  271   1.143   1.587   0.180
    9UNL     H6  272   0.901   1.610   0.246
    9UNL     H7  273   0.936   1.776   0.305
    9UNL     H8  274   1.027   1.826   0.060
    9UNL     H9  275   0.945   1.667   0.022
    9UNL    H10  276   0.790   1.890   0.159
    9UNL    H11  277   0.740   1.728   0.098
    9UNL    H12  278   0.804   1.788  -0.131
    9UNL    H13  279   0.840   1.958  -0.086
    9UNL    H14  280   0.586   1.789  -0.071
    9UNL    H15  281   0.583   1.949  -0.005
    9UNL    H16  282   0.474   1.953  -0.217
    9UNL    H17  283   0.621   1.901  -0.300
    9UNL    H18  284   0.613   2.164  -0.130
    9UNL    H19  285   0.718   2.125  -0.265
    9UNL    H20  286   0.517   2.162  -0.420
    9UNL    H21  287   0.421   2.194  -0.273
    9UNL    H22  288   0.556   2.295  -0.317
   10UNL     C1  289   0.349   1.113   1.628
   10UNL     C2  290   0.294   0.972   1.650
   10UNL     C3  291   0.349   0.864   1.555
   10UNL     C4  292   0.497   0.833   1.573
   10UNL     C5  293   0.547   0.705   1.490
   10UNL     C6  294   0.702   0.686   1.516
   10UNL     C7  295   0.745   0.546   1.477
   10UNL     C8  296   0.893   0.518   1.517
   10UNL     C9  297   0.960   0.390   1.463
   10UNL    C10  298   0.988   0.397   1.314
   10UNL     H1  299   0.368   1.122   1.520
   10UNL     H2  300   0.280   1.193   1.671
   10UNL     H3  301   0.434   1.118   1.693
   10UNL     H4  302   0.308   0.939   1.755
   10UNL     H5  303   0.179   0.981   1.636
   10UNL     H6  304   0.287   0.775   1.574
   10UNL     H7  305   0.325   0.887   1.449
   10UNL     H8  306   0.554   0.922   1.534
   10UNL     H9  307   0.525   0.817   1.675
   10UNL    H10  308   0.509   0.722   1.384
   10UNL    H11  309   0.491   0.618   1.533
   10UNL    H12  310   0.727   0.699   1.620
   10UNL    H13  311   0.752   0.771   1.460
   10UNL    H14  312   0.682   0.468   1.529
   10UNL    H15  313   0.731   0.525   1.372
   10UNL    H16  314   0.891   0.507   1.623
   10UNL    H17  315   0.950   0.606   1.502
   10UNL    H18  316   1.052   0.362   1.518
   10UNL    H19  317   0.891   0.310   1.486
   10UNL    H20  318   0.901   0.418   1.255
   10UNL    H21  319   1.062   0.471   1.310
   10UNL    H22  320   1.027   0.298   1.278
   11UNL     C1  321   0.337   1.799   0.841
   11UNL     C2  322   0.201   1.787   0.778
   11UNL     C3  323   0.186   1.897   0.668
   11UNL     C4  324   0.155   2.036   0.725
   11UNL     C5  325   0.122   2.133   0.613
   11UNL     C6  326  -0.025   2.122   0.574
   11UNL     C7  327  -0.064   2.197   0.442
   11UNL     C8  328  -0.158   2.107   0.357
   11UNL     C9  329  -0.165   2.160   0.211
   11UNL    C10  330  -0.199   2.314   0.197
   11UNL     H1  331   0.360   1.712   0.910
   11UNL     H2  332   0.415   1.791   0.762
   11UNL     H3  333   0.359   1.887   0.903
   11UNL     H4  334   0.205   1.693   0.724
   11UNL     H5  335   0.120   1.793   0.852
   11UNL     H6  336   0.280   1.907   0.606
   11UNL     H7  337   0.113   1.854   0.603
   11UNL     H8  338   0.074   2.026   0.797
   11UNL     H9  339   0.241   2.065   0.792
   11UNL    H10  340   0.181   2.113   0.522
   11UNL    H11  341   0.151   2.224   0.659
   11UNL    H12  342  -0.074   2.178   0.653
   11UNL    H13  343  -0.051   2.017   0.568
   11UNL    H14  344  -0.121   2.287   0.465
   11UNL    H15  345   0.029   2.224   0.378
   11UNL    H16  346  -0.262   2.103   0.388
   11UNL    H17  347  -0.108   2.011   0.350
   11UNL    H18  348  -0.069   2.133   0.163
   11UNL    H19  349  -0.247   2.105   0.158
   11UNL    H20  350  -0.305   2.333   0.225
   11UNL    H21  351  -0.141   2.385   0.258
   11UNL    H22  352  -0.192   2.344   0.091
   12UNL     C1  353   0.665   0.356   0.363
   12UNL     C2  354   0.732   0.331   0.227
   12UNL     C3  355   0.866   0.254   0.227
   12UNL     C4  356   0.907   0.196   0.093
   12UNL     C5  357   0.817   0.089   0.033
   12UNL     C6  358   0.838  -0.052   0.090
   12UNL     C7  359   0.982  -0.104   0.060
   12UNL     C8  360   0.995  -0.249   0.104
   12UNL     C9  361   0.994  -0.286   0.259
   12UNL    C10  362   1.103  -0.235   0.358
   12UNL     H1  363   0.739   0.414   0.419
   12UNL     H2  364   0.569   0.408   0.357
   12UNL     H3  365   0.652   0.269   0.423
   12UNL     H4  366   0.656   0.277   0.173
   12UNL     H5  367   0.724   0.427   0.174
   12UNL     H6  368   0.956   0.320   0.259
   12UNL     H7  369   0.860   0.172   0.298
   12UNL     H8  370   0.909   0.282   0.022
   12UNL     H9  371   1.003   0.163   0.097
   12UNL    H10  372   0.826   0.090  -0.077
   12UNL    H11  373   0.714   0.120   0.046
   12UNL    H12  374   0.773  -0.128   0.054
   12UNL    H13  375   0.821  -0.054   0.198
   12UNL    H14  376   1.012  -0.107  -0.039
   12UNL    H15  377   1.063  -0.039   0.103
   12UNL    H16  378   1.090  -0.275   0.057
   12UNL    H17  379   0.922  -0.307   0.047
   12UNL    H18  380   0.900  -0.243   0.283
   12UNL    H19  381   0.984  -0.401   0.277
   12UNL    H20  382   1.114  -0.128   0.345
   12UNL    H21  383   1.062  -0.263   0.460
   12UNL    H22  384   1.191  -0.302   0.349
   13UNL     C1  385   0.390   0.136   0.660
   13UNL     C2  386   0.316   0.238   0.744
   13UNL     C3  387   0.363   0.375   0.720
   13UNL     C4  388   0.275   0.481   0.792
   13UNL     C5  389   0.288   0.493   0.944
   13UNL     C6  390   0.205   0.600   1.018
   13UNL     C7  391   0.230   0.606   1.174
   13UNL     C8  392   0.142   0.706   1.251
   13UNL     C9  393  -0.008   0.682   1.264
   13UNL    C10  394  -0.038   0.543   1.317
   13UNL     H1  395   0.500   0.139   0.680
   13UNL     H2  396   0.351   0.037   0.695
   13UNL     H3  397   0.361   0.144   0.552
   13UNL     H4  398   0.208   0.232   0.731
   13UNL     H5  399   0.332   0.207   0.850
   13UNL     H6  400   0.472   0.387   0.749
   13UNL     H7  401   0.362   0.387   0.606
   13UNL     H8  402   0.302   0.577   0.748
   13UNL     H9  403   0.167   0.473   0.763
   13UNL    H10  404   0.398   0.502   0.972
   13UNL    H11  405   0.254   0.397   0.985
   13UNL    H12  406   0.093   0.582   1.022
   13UNL    H13  407   0.221   0.702   0.987
   13UNL    H14  408   0.204   0.507   1.215
   13UNL    H15  409   0.330   0.641   1.196
   13UNL    H16  410   0.150   0.807   1.210
   13UNL    H17  411   0.178   0.696   1.352
   13UNL    H18  412  -0.053   0.752   1.335
   13UNL    H19  413  -0.061   0.690   1.167
   13UNL    H20  414   0.009   0.525   1.413
   13UNL    H21  415  -0.147   0.537   1.322
   13UNL    H22  416   0.004   0.457   1.253
   14UNL     C1  417   1.260   0.014   0.744
   14UNL     C2  418   1.250   0.075   0.598
   14UNL     C3  419   1.349   0.198   0.578
   14UNL     C4  420   1.343   0.256   0.430
   14UNL     C5  421   1.408   0.154   0.334
   14UNL     C6  422   1.405   0.193   0.183
   14UNL     C7  423   1.464   0.083   0.091
   14UNL     C8  424   1.390  -0.057   0.088
   14UNL     C9  425   1.459  -0.160  -0.005
   14UNL    C10  426   1.380  -0.284  -0.032
   14UNL     H1  427   1.177  -0.056   0.762
   14UNL     H2  428   1.355  -0.041   0.750
   14UNL     H3  429   1.265   0.090   0.821
   14UNL     H4  430   1.278  -0.003   0.530
   14UNL     H5  431   1.147   0.101   0.589
   14UNL     H6  432   1.318   0.279   0.644
   14UNL     H7  433   1.455   0.184   0.596
   14UNL     H8  434   1.236   0.259   0.401
   14UNL     H9  435   1.376   0.364   0.424
   14UNL    H10  436   1.366   0.061   0.350
   14UNL    H11  437   1.514   0.151   0.361
   14UNL    H12  438   1.465   0.287   0.179
   14UNL    H13  439   1.306   0.214   0.148
   14UNL    H14  440   1.475   0.127  -0.006
   14UNL    H15  441   1.570   0.068   0.126
   14UNL    H16  442   1.292  -0.042   0.037
   14UNL    H17  443   1.381  -0.092   0.186
   14UNL    H18  444   1.495  -0.124  -0.099
   14UNL    H19  445   1.553  -0.189   0.043
   14UNL    H20  446   1.434  -0.347  -0.103
   14UNL    H21  447   1.362  -0.339   0.063
   14UNL    H22  448   1.286  -0.264  -0.080
   15UNL     C1  449   0.257   1.219   0.197
   15UNL     C2  450   0.390   1.224   0.115
   15UNL     C3  451   0.519   1.242   0.187
   15UNL     C4  452   0.636   1.204   0.088
   15UNL     C5  453   0.775   1.231   0.151
   15UNL     C6  454   0.882   1.227   0.038
   15UNL     C7  455   0.885   1.100  -0.049
   15UNL     C8  456   0.915   0.970   0.026
   15UNL     C9  457   0.969   0.842  -0.046
   15UNL    C10  458   1.127   0.851  -0.071
   15UNL     H1  459   0.257   1.131   0.257
   15UNL     H2  460   0.252   1.294   0.284
   15UNL     H3  461   0.175   1.213   0.128
   15UNL     H4  462   0.395   1.128   0.062
   15UNL     H5  463   0.370   1.291   0.031
   15UNL     H6  464   0.528   1.349   0.211
   15UNL     H7  465   0.515   1.182   0.278
   15UNL     H8  466   0.639   1.100   0.064
   15UNL     H9  467   0.628   1.272  -0.004
   15UNL    H10  468   0.800   1.168   0.237
   15UNL    H11  469   0.780   1.330   0.193
   15UNL    H12  470   0.982   1.240   0.075
   15UNL    H13  471   0.864   1.309  -0.033
   15UNL    H14  472   0.783   1.097  -0.095
   15UNL    H15  473   0.952   1.129  -0.131
   15UNL    H16  474   0.821   0.936   0.059
   15UNL    H17  475   0.979   0.989   0.116
   15UNL    H18  476   0.958   0.751   0.018
   15UNL    H19  477   0.925   0.816  -0.139
   15UNL    H20  478   1.153   0.764  -0.136
   15UNL    H21  479   1.164   0.938  -0.126
   15UNL    H22  480   1.181   0.844   0.020
   16UNL     C1  481   0.613   0.815   0.901
   16UNL     C2  482   0.698   0.750   1.026
   16UNL     C3  483   0.818   0.836   1.058
   16UNL     C4  484   0.901   0.765   1.161
   16UNL     C5  485   1.024   0.847   1.210
   16UNL     C6  486   1.019   0.996   1.234
   16UNL     C7  487   0.932   1.026   1.358
   16UNL     C8  488   0.937   1.173   1.410
   16UNL     C9  489   0.844   1.199   1.533
   16UNL    C10  490   0.692   1.198   1.508
   16UNL     H1  491   0.613   0.923   0.914
   16UNL     H2  492   0.659   0.777   0.808
   16UNL     H3  493   0.510   0.776   0.901
   16UNL     H4  494   0.632   0.743   1.110
   16UNL     H5  495   0.729   0.643   0.993
   16UNL     H6  496   0.882   0.835   0.968
   16UNL     H7  497   0.782   0.931   1.088
   16UNL     H8  498   0.842   0.742   1.252
   16UNL     H9  499   0.931   0.665   1.126
   16UNL    H10  500   1.092   0.836   1.127
   16UNL    H11  501   1.075   0.795   1.296
   16UNL    H12  502   0.983   1.042   1.144
   16UNL    H13  503   1.119   1.040   1.256
   16UNL    H14  504   0.830   0.999   1.319
   16UNL    H15  505   0.970   0.957   1.432
   16UNL    H16  506   0.905   1.244   1.332
   16UNL    H17  507   1.041   1.189   1.438
   16UNL    H18  508   0.857   1.125   1.611
   16UNL    H19  509   0.868   1.295   1.564
   16UNL    H20  510   0.643   1.108   1.467
   16UNL    H21  511   0.647   1.219   1.605
   16UNL    H22  512   0.669   1.280   1.447
   17UNL     C1  513   1.002   0.469   2.137
   17UNL     C2  514   0.905   0.367   2.186
   17UNL     C3  515   0.822   0.305   2.069
   17UNL     C4  516   0.724   0.405   2.002
   17UNL     C5  517   0.660   0.336   1.880
   17UNL     C6  518   0.541   0.408   1.812
   17UNL     C7  519   0.417   0.445   1.906
   17UNL     C8  520   0.301   0.506   1.823
   17UNL     C9  521   0.211   0.606   1.906
   17UNL    C10  522   0.089   0.664   1.817
   17UNL     H1  523   1.050   0.508   2.221
   17UNL     H2  524   1.077   0.425   2.068
   17UNL     H3  525   0.951   0.549   2.083
   17UNL     H4  526   0.974   0.285   2.220
   17UNL     H5  527   0.845   0.419   2.266
   17UNL     H6  528   0.893   0.269   1.995
   17UNL     H7  529   0.773   0.215   2.106
   17UNL     H8  530   0.648   0.427   2.088
   17UNL     H9  531   0.767   0.504   1.978
   17UNL    H10  532   0.630   0.235   1.910
   17UNL    H11  533   0.737   0.315   1.810
   17UNL    H12  534   0.519   0.347   1.730
   17UNL    H13  535   0.580   0.498   1.774
   17UNL    H14  536   0.389   0.364   1.969
   17UNL    H15  537   0.457   0.516   1.978
   17UNL    H16  538   0.235   0.432   1.769
   17UNL    H17  539   0.347   0.555   1.741
   17UNL    H18  540   0.171   0.560   1.992
   17UNL    H19  541   0.265   0.695   1.943
   17UNL    H20  542   0.032   0.737   1.875
   17UNL    H21  543   0.122   0.719   1.727
   17UNL    H22  544   0.014   0.592   1.795
   18UNL     C1  545   1.260   1.588   2.117
   18UNL     C2  546   1.197   1.725   2.155
   18UNL     C3  547   1.222   1.848   2.057
   18UNL     C4  548   1.104   1.947   2.068
   18UNL     C5  549   1.130   2.080   1.990
   18UNL     C6  550   1.015   2.186   2.013
   18UNL     C7  551   1.037   2.316   1.933
   18UNL     C8  552   0.956   2.316   1.795
   18UNL     C9  553   0.972   2.446   1.713
   18UNL    C10  554   1.123   2.455   1.679
   18UNL     H1  555   1.195   1.563   2.027
   18UNL     H2  556   1.369   1.605   2.087
   18UNL     H3  557   1.262   1.515   2.190
   18UNL     H4  558   1.087   1.712   2.173
   18UNL     H5  559   1.234   1.754   2.256
   18UNL     H6  560   1.311   1.898   2.097
   18UNL     H7  561   1.244   1.822   1.952
   18UNL     H8  562   1.024   1.885   2.023
   18UNL     H9  563   1.070   1.965   2.174
   18UNL    H10  564   1.136   2.042   1.877
   18UNL    H11  565   1.227   2.121   2.011
   18UNL    H12  566   1.010   2.209   2.114
   18UNL    H13  567   0.926   2.139   1.991
   18UNL    H14  568   0.997   2.405   1.986
   18UNL    H15  569   1.142   2.333   1.921
   18UNL    H16  570   0.851   2.292   1.815
   18UNL    H17  571   0.981   2.224   1.743
   18UNL    H18  572   0.916   2.454   1.622
   18UNL    H19  573   0.947   2.529   1.781
   18UNL    H20  574   1.185   2.474   1.771
   18UNL    H21  575   1.158   2.354   1.647
   18UNL    H22  576   1.150   2.536   1.609
   19UNL     C1  577   0.014   2.222   2.102
   19UNL     C2  578   0.012   2.270   1.962
   19UNL     C3  579  -0.036   2.418   1.953
   19UNL     C4  580  -0.068   2.446   1.807
   19UNL     C5  581  -0.099   2.601   1.787
   19UNL     C6  582  -0.251   2.635   1.826
   19UNL     C7  583  -0.290   2.776   1.783
   19UNL     C8  584  -0.416   2.819   1.861
   19UNL     C9  585  -0.485   2.961   1.846
   19UNL    C10  586  -0.520   3.005   1.707
   19UNL     H1  587  -0.084   2.245   2.153
   19UNL     H2  588   0.023   2.116   2.091
   19UNL     H3  589   0.090   2.268   2.161
   19UNL     H4  590   0.112   2.258   1.920
   19UNL     H5  591  -0.058   2.200   1.911
   19UNL     H6  592  -0.128   2.435   2.023
   19UNL     H7  593   0.044   2.485   1.982
   19UNL     H8  594   0.020   2.432   1.752
   19UNL     H9  595  -0.145   2.375   1.771
   19UNL    H10  596  -0.085   2.636   1.681
   19UNL    H11  597  -0.030   2.664   1.844
   19UNL    H12  598  -0.268   2.622   1.936
   19UNL    H13  599  -0.323   2.565   1.787
   19UNL    H14  600  -0.217   2.838   1.819
   19UNL    H15  601  -0.293   2.789   1.669
   19UNL    H16  602  -0.381   2.815   1.966
   19UNL    H17  603  -0.500   2.752   1.841
   19UNL    H18  604  -0.573   2.970   1.914
   19UNL    H19  605  -0.419   3.037   1.893
   19UNL    H20  606  -0.591   2.931   1.659
   19UNL    H21  607  -0.574   3.099   1.716
   19UNL    H22  608  -0.422   3.009   1.656
   20UNL     C1  609   2.264   1.589   1.977
   20UNL     C2  610   2.342   1.513   1.864
   20UNL     C3  611   2.335   1.351   1.870
   20UNL     C4  612   2.374   1.282   2.003
   20UNL     C5  613   2.507   1.327   2.074
   20UNL     C6  614   2.633   1.320   1.990
   20UNL     C7  615   2.764   1.357   2.068
   20UNL     C8  616   2.891   1.382   1.993
   20UNL     C9  617   3.003   1.419   2.085
   20UNL    C10  618   3.140   1.398   2.023
   20UNL     H1  619   2.159   1.560   1.971
   20UNL     H2  620   2.320   1.561   2.072
   20UNL     H3  621   2.263   1.696   1.967
   20UNL     H4  622   2.290   1.540   1.766
   20UNL     H5  623   2.448   1.539   1.862
   20UNL     H6  624   2.235   1.318   1.842
   20UNL     H7  625   2.398   1.326   1.790
   20UNL     H8  626   2.286   1.298   2.075
   20UNL     H9  627   2.393   1.177   1.983
   20UNL    H10  628   2.527   1.262   2.164
   20UNL    H11  629   2.494   1.429   2.118
   20UNL    H12  630   2.625   1.401   1.917
   20UNL    H13  631   2.639   1.228   1.929
   20UNL    H14  632   2.739   1.450   2.118
   20UNL    H15  633   2.791   1.272   2.128
   20UNL    H16  634   2.870   1.470   1.925
   20UNL    H17  635   2.918   1.304   1.922
   20UNL    H18  636   2.983   1.522   2.097
   20UNL    H19  637   2.997   1.364   2.184
   20UNL    H20  638   3.144   1.449   1.919
   20UNL    H21  639   3.217   1.431   2.093
   20UNL    H22  640   3.149   1.283   2.009
   21O2      O1  641   1.600   1.906   1.884
   21O2      O2  642   1.680   1.815   1.891
   22O2      O1  643   0.410   0.071   2.089
   22O2      O2  644   0.298   0.117   2.090
   23O2      O1  645   1.861   0.074   0.101
   23O2      O2  646   1.813   0.168   0.042
   24O2      O1  647   0.350   0.017   1.037
   24O2      O2  648   0.235   0.055   1.027
   25O2      O1  649   0.747   1.892   0.883
   25O2      O2  650   0.684   1.807   0.823
   2.39513   2.39513   2.39513
