system_GMX.gro created by acpype (v: 2023.10.27) on Tue Jul 14 09:17:56 2026
 640
    1  UNL   C1    1   3.498   2.480   2.691
    1  UNL   C2    2   3.402   2.405   2.600
    1  UNL   C3    3   3.404   2.253   2.623
    1  UNL   C4    4   3.354   2.212   2.761
    1  UNL   C5    5   3.336   2.061   2.776
    1  UNL   C6    6   3.467   1.983   2.766
    1  UNL   C7    7   3.453   1.835   2.804
    1  UNL   C8    8   3.366   1.755   2.706
    1  UNL   C9    9   3.353   1.607   2.744
    1  UNL  C10   10   3.483   1.530   2.732
    1  UNL   H1   11   3.499   2.587   2.664
    1  UNL   H2   12   3.468   2.473   2.796
    1  UNL   H3   13   3.600   2.442   2.681
    1  UNL   H4   14   3.301   2.443   2.614
    1  UNL   H5   15   3.430   2.425   2.496
    1  UNL   H6   16   3.341   2.206   2.546
    1  UNL   H7   17   3.506   2.216   2.607
    1  UNL   H8   18   3.423   2.248   2.839
    1  UNL   H9   19   3.257   2.260   2.780
    1  UNL  H10   20   3.265   2.025   2.701
    1  UNL  H11   21   3.290   2.041   2.874
    1  UNL  H12   22   3.541   2.028   2.833
    1  UNL  H13   23   3.508   1.990   2.665
    1  UNL  H14   24   3.554   1.792   2.807
    1  UNL  H15   25   3.413   1.826   2.905
    1  UNL  H16   26   3.407   1.764   2.605
    1  UNL  H17   27   3.265   1.798   2.704
    1  UNL  H18   28   3.314   1.598   2.846
    1  UNL  H19   29   3.279   1.561   2.677
    1  UNL  H20   30   3.557   1.563   2.806
    1  UNL  H21   31   3.465   1.423   2.750
    1  UNL  H22   32   3.527   1.540   2.632
    2  UNL   C1   33   2.727   1.972   2.631
    2  UNL   C2   34   2.674   1.890   2.748
    2  UNL   C3   35   2.552   1.954   2.816
    2  UNL   C4   36   2.429   1.961   2.726
    2  UNL   C5   37   2.302   2.005   2.800
    2  UNL   C6   38   2.310   2.148   2.854
    2  UNL   C7   39   2.177   2.200   2.908
    2  UNL   C8   40   2.128   2.126   3.033
    2  UNL   C9   41   1.995   2.178   3.087
    2  UNL  C10   42   2.003   2.320   3.142
    2  UNL   H1   43   2.819   1.926   2.592
    2  UNL   H2   44   2.655   1.976   2.549
    2  UNL   H3   45   2.750   2.074   2.662
    2  UNL   H4   46   2.648   1.789   2.713
    2  UNL   H5   47   2.754   1.879   2.822
    2  UNL   H6   48   2.528   1.894   2.905
    2  UNL   H7   49   2.580   2.054   2.852
    2  UNL   H8   50   2.448   2.030   2.643
    2  UNL   H9   51   2.411   1.863   2.682
    2  UNL  H10   52   2.283   1.935   2.882
    2  UNL  H11   53   2.218   1.998   2.730
    2  UNL  H12   54   2.343   2.215   2.774
    2  UNL  H13   55   2.386   2.154   2.934
    2  UNL  H14   56   2.190   2.306   2.932
    2  UNL  H15   57   2.100   2.194   2.830
    2  UNL  H16   58   2.205   2.131   3.111
    2  UNL  H17   59   2.115   2.020   3.009
    2  UNL  H18   60   1.919   2.174   3.008
    2  UNL  H19   61   1.962   2.112   3.167
    2  UNL  H20   62   2.024   2.393   3.063
    2  UNL  H21   63   1.908   2.348   3.189
    2  UNL  H22   64   2.082   2.328   3.218
    3  UNL   C1   65   2.094   1.979   2.174
    3  UNL   C2   66   2.109   1.963   2.325
    3  UNL   C3   67   2.223   2.045   2.384
    3  UNL   C4   68   2.201   2.196   2.372
    3  UNL   C5   69   2.305   2.279   2.449
    3  UNL   C6   70   2.447   2.263   2.396
    3  UNL   C7   71   2.547   2.362   2.457
    3  UNL   C8   72   2.571   2.339   2.607
    3  UNL   C9   73   2.671   2.437   2.668
    3  UNL  C10   74   2.812   2.420   2.616
    3  UNL   H1   75   2.017   1.911   2.137
    3  UNL   H2   76   2.064   2.081   2.148
    3  UNL   H3   77   2.188   1.956   2.123
    3  UNL   H4   78   2.014   1.989   2.374
    3  UNL   H5   79   2.127   1.857   2.347
    3  UNL   H6   80   2.233   2.019   2.490
    3  UNL   H7   81   2.317   2.017   2.335
    3  UNL   H8   82   2.203   2.226   2.267
    3  UNL   H9   83   2.102   2.222   2.410
    3  UNL  H10   84   2.301   2.251   2.555
    3  UNL  H11   85   2.275   2.384   2.444
    3  UNL  H12   86   2.446   2.279   2.287
    3  UNL  H13   87   2.483   2.161   2.413
    3  UNL  H14   88   2.641   2.352   2.403
    3  UNL  H15   89   2.511   2.465   2.441
    3  UNL  H16   90   2.605   2.236   2.623
    3  UNL  H17   91   2.476   2.349   2.661
    3  UNL  H18   92   2.637   2.540   2.651
    3  UNL  H19   93   2.672   2.422   2.777
    3  UNL  H20   94   2.820   2.447   2.510
    3  UNL  H21   95   2.881   2.486   2.671
    3  UNL  H22   96   2.847   2.317   2.628
    4  UNL   C1   97   2.511   1.753   1.367
    4  UNL   C2   98   2.521   1.873   1.460
    4  UNL   C3   99   2.588   1.841   1.594
    4  UNL   C4  100   2.735   1.800   1.581
    4  UNL   C5  101   2.807   1.789   1.716
    4  UNL   C6  102   2.751   1.677   1.804
    4  UNL   C7  103   2.837   1.650   1.928
    4  UNL   C8  104   2.838   1.766   2.028
    4  UNL   C9  105   2.923   1.739   2.152
    4  UNL  C10  106   2.867   1.628   2.241
    4  UNL   H1  107   2.455   1.780   1.277
    4  UNL   H2  108   2.610   1.719   1.335
    4  UNL   H3  109   2.460   1.670   1.416
    4  UNL   H4  110   2.576   1.954   1.410
    4  UNL   H5  111   2.420   1.911   1.479
    4  UNL   H6  112   2.580   1.930   1.658
    4  UNL   H7  113   2.531   1.761   1.644
    4  UNL   H8  114   2.743   1.705   1.527
    4  UNL   H9  115   2.787   1.875   1.520
    4  UNL  H10  116   2.801   1.885   1.768
    4  UNL  H11  117   2.913   1.770   1.696
    4  UNL  H12  118   2.746   1.584   1.746
    4  UNL  H13  119   2.649   1.701   1.836
    4  UNL  H14  120   2.797   1.560   1.977
    4  UNL  H15  121   2.940   1.626   1.898
    4  UNL  H16  122   2.735   1.790   2.058
    4  UNL  H17  123   2.879   1.856   1.979
    4  UNL  H18  124   3.025   1.713   2.123
    4  UNL  H19  125   2.929   1.831   2.211
    4  UNL  H20  126   2.870   1.531   2.191
    4  UNL  H21  127   2.926   1.621   2.333
    4  UNL  H22  128   2.763   1.649   2.269
    5  UNL   C1  129   2.582   3.015   2.882
    5  UNL   C2  130   2.431   3.027   2.897
    5  UNL   C3  131   2.369   3.131   2.803
    5  UNL   C4  132   2.382   3.094   2.655
    5  UNL   C5  133   2.303   3.187   2.562
    5  UNL   C6  134   2.353   3.331   2.563
    5  UNL   C7  135   2.289   3.419   2.455
    5  UNL   C8  136   2.139   3.441   2.475
    5  UNL   C9  137   2.075   3.529   2.367
    5  UNL  C10  138   2.124   3.673   2.369
    5  UNL   H1  139   2.621   2.946   2.958
    5  UNL   H2  140   2.609   2.975   2.784
    5  UNL   H3  141   2.631   3.112   2.895
    5  UNL   H4  142   2.384   2.930   2.880
    5  UNL   H5  143   2.408   3.056   3.000
    5  UNL   H6  144   2.263   3.141   2.828
    5  UNL   H7  145   2.415   3.229   2.822
    5  UNL   H8  146   2.488   3.096   2.625
    5  UNL   H9  147   2.347   2.992   2.640
    5  UNL  H10  148   2.197   3.183   2.591
    5  UNL  H11  149   2.310   3.147   2.460
    5  UNL  H12  150   2.461   3.332   2.548
    5  UNL  H13  151   2.334   3.377   2.661
    5  UNL  H14  152   2.341   3.515   2.455
    5  UNL  H15  153   2.307   3.374   2.356
    5  UNL  H16  154   2.121   3.486   2.574
    5  UNL  H17  155   2.087   3.345   2.474
    5  UNL  H18  156   2.094   3.486   2.268
    5  UNL  H19  157   1.967   3.529   2.382
    5  UNL  H20  158   2.230   3.680   2.342
    5  UNL  H21  159   2.068   3.733   2.297
    5  UNL  H22  160   2.111   3.718   2.468
    6  UNL   C1  161   2.178   3.128   1.606
    6  UNL   C2  162   2.190   3.140   1.757
    6  UNL   C3  163   2.060   3.184   1.825
    6  UNL   C4  164   1.947   3.081   1.811
    6  UNL   C5  165   1.824   3.114   1.897
    6  UNL   C6  166   1.754   3.243   1.854
    6  UNL   C7  167   1.619   3.265   1.923
    6  UNL   C8  168   1.632   3.289   2.074
    6  UNL   C9  169   1.497   3.312   2.143
    6  UNL  C10  170   1.428   3.441   2.102
    6  UNL   H1  171   2.276   3.106   1.562
    6  UNL   H2  172   2.110   3.047   1.577
    6  UNL   H3  173   2.141   3.221   1.561
    6  UNL   H4  174   2.224   3.045   1.799
    6  UNL   H5  175   2.267   3.214   1.780
    6  UNL   H6  176   2.081   3.201   1.931
    6  UNL   H7  177   2.028   3.280   1.783
    6  UNL   H8  178   1.917   3.072   1.707
    6  UNL   H9  179   1.985   2.982   1.842
    6  UNL  H10  180   1.855   3.121   2.002
    6  UNL  H11  181   1.754   3.031   1.889
    6  UNL  H12  182   1.737   3.240   1.746
    6  UNL  H13  183   1.819   3.330   1.873
    6  UNL  H14  184   1.572   3.352   1.876
    6  UNL  H15  185   1.554   3.179   1.905
    6  UNL  H16  186   1.697   3.375   2.093
    6  UNL  H17  187   1.679   3.202   2.121
    6  UNL  H18  188   1.430   3.227   2.124
    6  UNL  H19  189   1.514   3.315   2.251
    6  UNL  H20  190   1.397   3.438   1.997
    6  UNL  H21  191   1.338   3.456   2.162
    6  UNL  H22  192   1.494   3.527   2.116
    7  UNL   C1  193   2.222   1.534   3.071
    7  UNL   C2  194   2.329   1.627   3.125
    7  UNL   C3  195   2.273   1.749   3.200
    7  UNL   C4  196   2.198   1.711   3.328
    7  UNL   C5  197   2.160   1.833   3.413
    7  UNL   C6  198   2.060   1.927   3.344
    7  UNL   C7  199   2.005   2.035   3.437
    7  UNL   C8  200   2.111   2.136   3.483
    7  UNL   C9  201   2.055   2.245   3.575
    7  UNL  C10  202   1.957   2.339   3.506
    7  UNL   H1  203   2.267   1.455   3.011
    7  UNL   H2  204   2.166   1.487   3.152
    7  UNL   H3  205   2.151   1.589   3.007
    7  UNL   H4  206   2.396   1.571   3.191
    7  UNL   H5  207   2.390   1.663   3.041
    7  UNL   H6  208   2.357   1.815   3.225
    7  UNL   H7  209   2.207   1.805   3.132
    7  UNL   H8  210   2.107   1.655   3.303
    7  UNL   H9  211   2.260   1.645   3.388
    7  UNL  H10  212   2.251   1.888   3.440
    7  UNL  H11  213   2.116   1.796   3.507
    7  UNL  H12  214   1.976   1.868   3.306
    7  UNL  H13  215   2.107   1.974   3.257
    7  UNL  H14  216   1.925   2.088   3.382
    7  UNL  H15  217   1.958   1.989   3.524
    7  UNL  H16  218   2.158   2.182   3.395
    7  UNL  H17  219   2.190   2.084   3.537
    7  UNL  H18  220   2.006   2.199   3.662
    7  UNL  H19  221   2.139   2.304   3.613
    7  UNL  H20  222   1.865   2.287   3.476
    7  UNL  H21  223   1.929   2.420   3.573
    7  UNL  H22  224   2.002   2.383   3.416
    8  UNL   C1  225   2.756   2.789   2.542
    8  UNL   C2  226   2.624   2.768   2.469
    8  UNL   C3  227   2.577   2.891   2.391
    8  UNL   C4  228   2.671   2.927   2.275
    8  UNL   C5  229   2.614   3.036   2.183
    8  UNL   C6  230   2.597   3.171   2.254
    8  UNL   C7  231   2.562   3.285   2.158
    8  UNL   C8  232   2.424   3.270   2.093
    8  UNL   C9  233   2.389   3.385   1.998
    8  UNL  C10  234   2.371   3.519   2.068
    8  UNL   H1  235   2.779   2.702   2.604
    8  UNL   H2  236   2.838   2.803   2.472
    8  UNL   H3  237   2.751   2.876   2.608
    8  UNL   H4  238   2.633   2.681   2.402
    8  UNL   H5  239   2.547   2.743   2.543
    8  UNL   H6  240   2.477   2.870   2.351
    8  UNL   H7  241   2.567   2.975   2.459
    8  UNL   H8  242   2.768   2.960   2.314
    8  UNL   H9  243   2.689   2.838   2.214
    8  UNL  H10  244   2.518   3.002   2.143
    8  UNL  H11  245   2.682   3.048   2.098
    8  UNL  H12  246   2.690   3.197   2.305
    8  UNL  H13  247   2.519   3.164   2.331
    8  UNL  H14  248   2.565   3.379   2.215
    8  UNL  H15  249   2.639   3.293   2.080
    8  UNL  H16  250   2.347   3.262   2.170
    8  UNL  H17  251   2.421   3.177   2.035
    8  UNL  H18  252   2.467   3.395   1.921
    8  UNL  H19  253   2.296   3.360   1.946
    8  UNL  H20  254   2.465   3.555   2.111
    8  UNL  H21  255   2.336   3.594   1.996
    8  UNL  H22  256   2.296   3.511   2.148
    9  UNL   C1  257   2.893   3.410   2.503
    9  UNL   C2  258   2.982   3.405   2.379
    9  UNL   C3  259   3.062   3.276   2.367
    9  UNL   C4  260   2.975   3.152   2.346
    9  UNL   C5  261   3.055   3.026   2.313
    9  UNL   C6  262   3.147   2.981   2.427
    9  UNL   C7  263   3.210   2.843   2.404
    9  UNL   C8  264   3.309   2.841   2.286
    9  UNL   C9  265   3.372   2.703   2.264
    9  UNL  C10  266   3.464   2.659   2.376
    9  UNL   H1  267   2.845   3.508   2.511
    9  UNL   H2  268   2.814   3.335   2.498
    9  UNL   H3  269   2.952   3.393   2.594
    9  UNL   H4  270   2.920   3.420   2.289
    9  UNL   H5  271   3.052   3.490   2.383
    9  UNL   H6  272   3.131   3.286   2.282
    9  UNL   H7  273   3.125   3.264   2.456
    9  UNL   H8  274   2.914   3.133   2.436
    9  UNL   H9  275   2.905   3.171   2.264
    9  UNL  H10  276   3.114   3.044   2.222
    9  UNL  H11  277   2.985   2.945   2.290
    9  UNL  H12  278   3.089   2.977   2.520
    9  UNL  H13  279   3.227   3.055   2.443
    9  UNL  H14  280   3.263   2.815   2.496
    9  UNL  H15  281   3.131   2.769   2.388
    9  UNL  H16  282   3.387   2.915   2.302
    9  UNL  H17  283   3.256   2.869   2.194
    9  UNL  H18  284   3.294   2.628   2.249
    9  UNL  H19  285   3.430   2.707   2.171
    9  UNL  H20  286   3.409   2.642   2.469
    9  UNL  H21  287   3.514   2.566   2.349
    9  UNL  H22  288   3.542   2.735   2.395
   10  UNL   C1  289   1.614   2.311   2.017
   10  UNL   C2  290   1.706   2.283   2.136
   10  UNL   C3  291   1.724   2.404   2.228
   10  UNL   C4  292   1.595   2.447   2.298
   10  UNL   C5  293   1.617   2.554   2.406
   10  UNL   C6  294   1.668   2.687   2.349
   10  UNL   C7  295   1.669   2.800   2.452
   10  UNL   C8  296   1.769   2.779   2.566
   10  UNL   C9  297   1.770   2.893   2.668
   10  UNL  C10  298   1.822   3.024   2.612
   10  UNL   H1  299   1.612   2.224   1.951
   10  UNL   H2  300   1.512   2.330   2.050
   10  UNL   H3  301   1.649   2.397   1.960
   10  UNL   H4  302   1.666   2.198   2.193
   10  UNL   H5  303   1.804   2.253   2.098
   10  UNL   H6  304   1.800   2.379   2.303
   10  UNL   H7  305   1.765   2.488   2.170
   10  UNL   H8  306   1.523   2.485   2.225
   10  UNL   H9  307   1.549   2.360   2.346
   10  UNL  H10  308   1.688   2.515   2.480
   10  UNL  H11  309   1.522   2.571   2.457
   10  UNL  H12  310   1.604   2.717   2.266
   10  UNL  H13  311   1.769   2.675   2.309
   10  UNL  H14  312   1.693   2.893   2.399
   10  UNL  H15  313   1.568   2.813   2.493
   10  UNL  H16  314   1.870   2.765   2.524
   10  UNL  H17  315   1.744   2.686   2.619
   10  UNL  H18  316   1.669   2.907   2.709
   10  UNL  H19  317   1.834   2.863   2.752
   10  UNL  H20  318   1.754   3.065   2.536
   10  UNL  H21  319   1.830   3.098   2.692
   10  UNL  H22  320   1.921   3.012   2.568
   11  UNL   C1  321   1.350   2.201   3.353
   11  UNL   C2  322   1.304   2.105   3.245
   11  UNL   C3  323   1.420   2.042   3.166
   11  UNL   C4  324   1.509   1.951   3.252
   11  UNL   C5  325   1.611   1.872   3.170
   11  UNL   C6  326   1.715   1.961   3.101
   11  UNL   C7  327   1.830   1.882   3.038
   11  UNL   C8  328   1.787   1.794   2.921
   11  UNL   C9  329   1.902   1.716   2.858
   11  UNL  C10  330   2.005   1.804   2.788
   11  UNL   H1  331   1.263   2.250   3.399
   11  UNL   H2  332   1.405   2.149   3.432
   11  UNL   H3  333   1.415   2.279   3.312
   11  UNL   H4  334   1.243   2.026   3.289
   11  UNL   H5  335   1.240   2.159   3.174
   11  UNL   H6  336   1.378   1.983   3.084
   11  UNL   H7  337   1.480   2.122   3.121
   11  UNL   H8  338   1.562   2.011   3.328
   11  UNL   H9  339   1.446   1.880   3.306
   11  UNL  H10  340   1.558   1.811   3.096
   11  UNL  H11  341   1.663   1.803   3.238
   11  UNL  H12  342   1.757   2.031   3.174
   11  UNL  H13  343   1.667   2.022   3.023
   11  UNL  H14  344   1.905   1.955   3.003
   11  UNL  H15  345   1.879   1.821   3.115
   11  UNL  H16  346   1.738   1.855   2.844
   11  UNL  H17  347   1.713   1.721   2.956
   11  UNL  H18  348   1.953   1.655   2.934
   11  UNL  H19  349   1.861   1.645   2.784
   11  UNL  H20  350   2.058   1.867   2.858
   11  UNL  H21  351   2.079   1.742   2.736
   11  UNL  H22  352   1.956   1.868   2.713
   12  UNL   C1  353   3.043   2.094   2.303
   12  UNL   C2  354   3.184   2.069   2.251
   12  UNL   C3  355   3.220   2.154   2.129
   12  UNL   C4  356   3.225   2.304   2.160
   12  UNL   C5  357   3.282   2.387   2.044
   12  UNL   C6  358   3.194   2.383   1.919
   12  UNL   C7  359   3.238   2.484   1.811
   12  UNL   C8  360   3.375   2.452   1.751
   12  UNL   C9  361   3.418   2.552   1.643
   12  UNL  C10  362   3.332   2.547   1.518
   12  UNL   H1  363   3.019   2.024   2.384
   12  UNL   H2  364   3.032   2.195   2.343
   12  UNL   H3  365   2.969   2.080   2.224
   12  UNL   H4  366   3.256   2.086   2.332
   12  UNL   H5  367   3.192   1.963   2.224
   12  UNL   H6  368   3.318   2.121   2.093
   12  UNL   H7  369   3.148   2.134   2.049
   12  UNL   H8  370   3.125   2.341   2.185
   12  UNL   H9  371   3.288   2.320   2.248
   12  UNL  H10  372   3.383   2.352   2.021
   12  UNL  H11  373   3.291   2.491   2.078
   12  UNL  H12  374   3.091   2.406   1.946
   12  UNL  H13  375   3.194   2.282   1.875
   12  UNL  H14  376   3.162   2.483   1.732
   12  UNL  H15  377   3.238   2.585   1.854
   12  UNL  H16  378   3.374   2.351   1.709
   12  UNL  H17  379   3.451   2.454   1.830
   12  UNL  H18  380   3.417   2.654   1.684
   12  UNL  H19  381   3.522   2.530   1.615
   12  UNL  H20  382   3.230   2.581   1.538
   12  UNL  H21  383   3.374   2.613   1.441
   12  UNL  H22  384   3.328   2.446   1.477
   13  UNL   C1  385   1.971   1.345   2.375
   13  UNL   C2  386   2.025   1.460   2.458
   13  UNL   C3  387   1.974   1.459   2.603
   13  UNL   C4  388   2.021   1.338   2.683
   13  UNL   C5  389   1.988   1.348   2.832
   13  UNL   C6  390   1.838   1.347   2.861
   13  UNL   C7  391   1.804   1.334   3.010
   13  UNL   C8  392   1.848   1.455   3.093
   13  UNL   C9  393   1.814   1.441   3.242
   13  UNL  C10  394   1.665   1.443   3.271
   13  UNL   H1  395   2.003   1.356   2.270
   13  UNL   H2  396   2.007   1.248   2.410
   13  UNL   H3  397   1.861   1.343   2.376
   13  UNL   H4  398   2.134   1.457   2.458
   13  UNL   H5  399   1.995   1.554   2.411
   13  UNL   H6  400   2.009   1.551   2.652
   13  UNL   H7  401   1.864   1.463   2.602
   13  UNL   H8  402   1.977   1.246   2.642
   13  UNL   H9  403   2.130   1.328   2.673
   13  UNL  H10  404   2.034   1.438   2.873
   13  UNL  H11  405   2.034   1.262   2.883
   13  UNL  H12  406   1.791   1.263   2.808
   13  UNL  H13  407   1.792   1.439   2.822
   13  UNL  H14  408   1.696   1.321   3.019
   13  UNL  H15  409   1.850   1.243   3.050
   13  UNL  H16  410   1.803   1.546   3.053
   13  UNL  H17  411   1.957   1.467   3.085
   13  UNL  H18  412   1.858   1.349   3.282
   13  UNL  H19  413   1.861   1.525   3.296
   13  UNL  H20  414   1.615   1.354   3.230
   13  UNL  H21  415   1.648   1.444   3.379
   13  UNL  H22  416   1.618   1.532   3.228
   14  UNL   C1  417   2.325   1.711   2.066
   14  UNL   C2  418   2.445   1.740   1.978
   14  UNL   C3  419   2.462   1.888   1.945
   14  UNL   C4  420   2.493   1.975   2.068
   14  UNL   C5  421   2.531   2.119   2.033
   14  UNL   C6  422   2.417   2.197   1.967
   14  UNL   C7  423   2.446   2.347   1.953
   14  UNL   C8  424   2.560   2.377   1.855
   14  UNL   C9  425   2.589   2.527   1.840
   14  UNL  C10  426   2.476   2.604   1.774
   14  UNL   H1  427   2.312   1.603   2.079
   14  UNL   H2  428   2.336   1.755   2.166
   14  UNL   H3  429   2.233   1.750   2.022
   14  UNL   H4  430   2.536   1.702   2.027
   14  UNL   H5  431   2.434   1.684   1.885
   14  UNL   H6  432   2.545   1.898   1.873
   14  UNL   H7  433   2.372   1.925   1.895
   14  UNL   H8  434   2.407   1.976   2.136
   14  UNL   H9  435   2.576   1.930   2.123
   14  UNL  H10  436   2.619   2.118   1.967
   14  UNL  H11  437   2.561   2.170   2.125
   14  UNL  H12  438   2.326   2.186   2.028
   14  UNL  H13  439   2.394   2.155   1.868
   14  UNL  H14  440   2.354   2.395   1.918
   14  UNL  H15  441   2.469   2.389   2.051
   14  UNL  H16  442   2.537   2.334   1.757
   14  UNL  H17  443   2.652   2.329   1.890
   14  UNL  H18  444   2.610   2.571   1.938
   14  UNL  H19  445   2.679   2.539   1.780
   14  UNL  H20  446   2.386   2.606   1.836
   14  UNL  H21  447   2.506   2.708   1.757
   14  UNL  H22  448   2.450   2.560   1.677
   15  UNL   C1  449   3.315   2.898   2.883
   15  UNL   C2  450   3.413   2.782   2.898
   15  UNL   C3  451   3.354   2.661   2.971
   15  UNL   C4  452   3.240   2.594   2.894
   15  UNL   C5  453   3.195   2.461   2.956
   15  UNL   C6  454   3.134   2.477   3.095
   15  UNL   C7  455   3.068   2.349   3.147
   15  UNL   C8  456   3.168   2.236   3.174
   15  UNL   C9  457   3.103   2.108   3.227
   15  UNL  C10  458   3.043   2.124   3.366
   15  UNL   H1  459   3.365   2.984   2.839
   15  UNL   H2  460   3.232   2.871   2.817
   15  UNL   H3  461   3.274   2.928   2.980
   15  UNL   H4  462   3.450   2.752   2.799
   15  UNL   H5  463   3.500   2.818   2.955
   15  UNL   H6  464   3.434   2.588   2.987
   15  UNL   H7  465   3.319   2.692   3.070
   15  UNL   H8  466   3.154   2.662   2.888
   15  UNL   H9  467   3.273   2.575   2.791
   15  UNL  H10  468   3.281   2.393   2.959
   15  UNL  H11  469   3.121   2.416   2.889
   15  UNL  H12  470   3.057   2.556   3.092
   15  UNL  H13  471   3.210   2.510   3.166
   15  UNL  H14  472   3.016   2.374   3.240
   15  UNL  H15  473   2.992   2.315   3.077
   15  UNL  H16  474   3.245   2.270   3.244
   15  UNL  H17  475   3.220   2.211   3.081
   15  UNL  H18  476   3.025   2.075   3.157
   15  UNL  H19  477   3.179   2.029   3.230
   15  UNL  H20  478   2.958   2.192   3.366
   15  UNL  H21  479   3.007   2.027   3.402
   15  UNL  H22  480   3.118   2.161   3.437
   16  UNL   C1  481   1.497   1.952   2.433
   16  UNL   C2  482   1.634   1.961   2.366
   16  UNL   C3  483   1.722   2.072   2.422
   16  UNL   C4  484   1.761   2.050   2.569
   16  UNL   C5  485   1.867   2.150   2.619
   16  UNL   C6  486   1.817   2.295   2.621
   16  UNL   C7  487   1.913   2.391   2.692
   16  UNL   C8  488   2.046   2.409   2.618
   16  UNL   C9  489   2.141   2.506   2.689
   16  UNL  C10  490   2.092   2.650   2.690
   16  UNL   H1  491   1.435   1.877   2.383
   16  UNL   H2  492   1.506   1.923   2.538
   16  UNL   H3  493   1.445   2.048   2.428
   16  UNL   H4  494   1.685   1.864   2.375
   16  UNL   H5  495   1.619   1.979   2.259
   16  UNL   H6  496   1.813   2.078   2.361
   16  UNL   H7  497   1.670   2.168   2.411
   16  UNL   H8  498   1.673   2.057   2.633
   16  UNL   H9  499   1.802   1.949   2.580
   16  UNL  H10  500   1.956   2.142   2.556
   16  UNL  H11  501   1.896   2.120   2.720
   16  UNL  H12  502   1.720   2.298   2.673
   16  UNL  H13  503   1.799   2.330   2.518
   16  UNL  H14  504   1.862   2.488   2.700
   16  UNL  H15  505   1.931   2.356   2.794
   16  UNL  H16  506   2.027   2.443   2.516
   16  UNL  H17  507   2.097   2.312   2.611
   16  UNL  H18  508   2.159   2.472   2.792
   16  UNL  H19  509   2.238   2.502   2.638
   16  UNL  H20  510   2.002   2.661   2.751
   16  UNL  H21  511   2.169   2.715   2.732
   16  UNL  H22  512   2.070   2.684   2.588
   17  UNL   C1  513   2.735   2.336   3.173
   17  UNL   C2  514   2.663   2.402   3.289
   17  UNL   C3  515   2.549   2.495   3.245
   17  UNL   C4  516   2.434   2.421   3.176
   17  UNL   C5  517   2.312   2.510   3.151
   17  UNL   C6  518   2.339   2.625   3.054
   17  UNL   C7  519   2.213   2.700   3.011
   17  UNL   C8  520   2.145   2.776   3.126
   17  UNL   C9  521   2.019   2.852   3.083
   17  UNL  C10  522   2.047   2.967   2.987
   17  UNL   H1  523   2.821   2.279   3.210
   17  UNL   H2  524   2.670   2.267   3.119
   17  UNL   H3  525   2.773   2.411   3.102
   17  UNL   H4  526   2.624   2.325   3.356
   17  UNL   H5  527   2.735   2.461   3.347
   17  UNL   H6  528   2.510   2.546   3.335
   17  UNL   H7  529   2.590   2.573   3.180
   17  UNL   H8  530   2.469   2.380   3.080
   17  UNL   H9  531   2.403   2.337   3.238
   17  UNL  H10  532   2.276   2.549   3.247
   17  UNL  H11  533   2.232   2.447   3.111
   17  UNL  H12  534   2.387   2.585   2.964
   17  UNL  H13  535   2.410   2.697   3.098
   17  UNL  H14  536   2.241   2.771   2.932
   17  UNL  H15  537   2.141   2.630   2.966
   17  UNL  H16  538   2.217   2.846   3.170
   17  UNL  H17  539   2.117   2.706   3.204
   17  UNL  H18  540   1.948   2.782   3.037
   17  UNL  H19  541   1.971   2.892   3.172
   17  UNL  H20  542   2.084   2.931   2.891
   17  UNL  H21  543   1.955   3.023   2.969
   17  UNL  H22  544   2.120   3.036   3.029
   18  UNL   C1  545   3.286   3.559   1.903
   18  UNL   C2  546   3.174   3.529   1.805
   18  UNL   C3  547   3.119   3.386   1.817
   18  UNL   C4  548   3.050   3.360   1.951
   18  UNL   C5  549   2.977   3.225   1.955
   18  UNL   C6  550   3.070   3.105   1.944
   18  UNL   C7  551   3.001   2.971   1.971
   18  UNL   C8  552   2.896   2.934   1.866
   18  UNL   C9  553   2.827   2.800   1.893
   18  UNL  C10  554   2.920   2.681   1.880
   18  UNL   H1  555   3.328   3.658   1.884
   18  UNL   H2  556   3.250   3.558   2.007
   18  UNL   H3  557   3.367   3.486   1.894
   18  UNL   H4  558   3.093   3.601   1.818
   18  UNL   H5  559   3.213   3.542   1.703
   18  UNL   H6  560   3.048   3.370   1.736
   18  UNL   H7  561   3.201   3.315   1.802
   18  UNL   H8  562   3.123   3.363   2.033
   18  UNL   H9  563   2.977   3.439   1.970
   18  UNL  H10  564   2.902   3.223   1.875
   18  UNL  H11  565   2.922   3.219   2.050
   18  UNL  H12  566   3.152   3.116   2.016
   18  UNL  H13  567   3.116   3.102   1.844
   18  UNL  H14  568   3.079   2.893   1.974
   18  UNL  H15  569   2.955   2.973   2.070
   18  UNL  H16  570   2.943   2.933   1.766
   18  UNL  H17  571   2.818   3.012   1.863
   18  UNL  H18  572   2.782   2.801   1.992
   18  UNL  H19  573   2.746   2.788   1.821
   18  UNL  H20  574   2.997   2.681   1.958
   18  UNL  H21  575   2.863   2.588   1.890
   18  UNL  H22  576   2.970   2.680   1.782
   19  UNL   C1  577   3.123   3.469   2.936
   19  UNL   C2  578   3.027   3.399   3.030
   19  UNL   C3  579   2.881   3.438   3.009
   19  UNL   C4  580   2.826   3.396   2.873
   19  UNL   C5  581   2.675   3.416   2.859
   19  UNL   C6  582   2.632   3.563   2.866
   19  UNL   C7  583   2.485   3.585   2.830
   19  UNL   C8  584   2.388   3.524   2.931
   19  UNL   C9  585   2.241   3.548   2.896
   19  UNL  C10  586   2.199   3.694   2.904
   19  UNL   H1  587   3.227   3.444   2.962
   19  UNL   H2  588   3.107   3.439   2.832
   19  UNL   H3  589   3.112   3.578   2.942
   19  UNL   H4  590   3.039   3.290   3.020
   19  UNL   H5  591   3.055   3.423   3.133
   19  UNL   H6  592   2.821   3.391   3.088
   19  UNL   H7  593   2.871   3.546   3.022
   19  UNL   H8  594   2.877   3.451   2.793
   19  UNL   H9  595   2.848   3.289   2.857
   19  UNL  H10  596   2.624   3.358   2.938
   19  UNL  H11  597   2.643   3.373   2.763
   19  UNL  H12  598   2.694   3.621   2.796
   19  UNL  H13  599   2.651   3.603   2.966
   19  UNL  H14  600   2.469   3.694   2.824
   19  UNL  H15  601   2.465   3.545   2.730
   19  UNL  H16  602   2.408   3.564   3.031
   19  UNL  H17  603   2.404   3.416   2.937
   19  UNL  H18  604   2.220   3.509   2.795
   19  UNL  H19  605   2.179   3.490   2.965
   19  UNL  H20  606   2.248   3.754   2.827
   19  UNL  H21  607   2.091   3.702   2.887
   19  UNL  H22  608   2.222   3.736   3.002
   20  UNL   C1  609   2.138   2.921   2.416
   20  UNL   C2  610   2.096   3.007   2.297
   20  UNL   C3  611   2.067   2.925   2.171
   20  UNL   C4  612   1.947   2.832   2.185
   20  UNL   C5  613   1.905   2.766   2.053
   20  UNL   C6  614   2.011   2.672   1.996
   20  UNL   C7  615   1.961   2.589   1.877
   20  UNL   C8  616   1.929   2.674   1.753
   20  UNL   C9  617   1.880   2.591   1.634
   20  UNL  C10  618   1.986   2.499   1.576
   20  UNL   H1  619   2.166   2.985   2.500
   20  UNL   H2  620   2.057   2.856   2.449
   20  UNL   H3  621   2.224   2.859   2.390
   20  UNL   H4  622   2.008   3.066   2.325
   20  UNL   H5  623   2.176   3.078   2.275
   20  UNL   H6  624   2.048   2.995   2.088
   20  UNL   H7  625   2.156   2.868   2.144
   20  UNL   H8  626   1.968   2.753   2.259
   20  UNL   H9  627   1.861   2.889   2.224
   20  UNL  H10  628   1.880   2.845   1.981
   20  UNL  H11  629   1.812   2.710   2.071
   20  UNL  H12  630   2.043   2.603   2.074
   20  UNL  H13  631   2.099   2.729   1.965
   20  UNL  H14  632   2.039   2.517   1.852
   20  UNL  H15  633   1.872   2.532   1.906
   20  UNL  H16  634   2.018   2.732   1.724
   20  UNL  H17  635   1.851   2.747   1.778
   20  UNL  H18  636   1.792   2.532   1.663
   20  UNL  H19  637   1.847   2.660   1.555
   20  UNL  H20  638   2.014   2.420   1.647
   20  UNL  H21  639   1.948   2.450   1.486
   20  UNL  H22  640   2.076   2.555   1.550
    2.50000     2.50000     2.50000
