; system_GMX.top created by acpype (v: 2023.10.27) on Tue Jul 14 09:17:56 2026

[ defaults ]
; nbfunc        comb-rule       gen-pairs       fudgeLJ fudgeQQ
1               2               yes             0.5     0.8333333333

[ atomtypes ]
;name   bond_type     mass     charge   ptype   sigma         epsilon       Amb
 c3       c3          0.00000  0.00000   A     3.39771e-01   4.51035e-01 ; 1.91  0.1078
 hc       hc          0.00000  0.00000   A     2.60018e-01   8.70272e-02 ; 1.46  0.0208

[ moleculetype ]
;name            nrexcl
 system           3

[ atoms ]
;   nr  type  resi  res  atom  cgnr     charge      mass       ; qtot   bond_type
     1   c3     1   UNL    C1    1    -0.092601     12.01000 ; qtot -0.093
     2   c3     1   UNL    C2    2    -0.079400     12.01000 ; qtot -0.172
     3   c3     1   UNL    C3    3    -0.078400     12.01000 ; qtot -0.250
     4   c3     1   UNL    C4    4    -0.078400     12.01000 ; qtot -0.329
     5   c3     1   UNL    C5    5    -0.078400     12.01000 ; qtot -0.407
     6   c3     1   UNL    C6    6    -0.078400     12.01000 ; qtot -0.486
     7   c3     1   UNL    C7    7    -0.078400     12.01000 ; qtot -0.564
     8   c3     1   UNL    C8    8    -0.078400     12.01000 ; qtot -0.642
     9   c3     1   UNL    C9    9    -0.079400     12.01000 ; qtot -0.722
    10   c3     1   UNL   C10   10    -0.092601     12.01000 ; qtot -0.814
    11   hc     1   UNL    H1   11     0.032367      1.00800 ; qtot -0.782
    12   hc     1   UNL    H2   12     0.032367      1.00800 ; qtot -0.750
    13   hc     1   UNL    H3   13     0.032367      1.00800 ; qtot -0.717
    14   hc     1   UNL    H4   14     0.037700      1.00800 ; qtot -0.680
    15   hc     1   UNL    H5   15     0.037700      1.00800 ; qtot -0.642
    16   hc     1   UNL    H6   16     0.038950      1.00800 ; qtot -0.603
    17   hc     1   UNL    H7   17     0.038950      1.00800 ; qtot -0.564
    18   hc     1   UNL    H8   18     0.039200      1.00800 ; qtot -0.525
    19   hc     1   UNL    H9   19     0.039200      1.00800 ; qtot -0.486
    20   hc     1   UNL   H10   20     0.039200      1.00800 ; qtot -0.446
    21   hc     1   UNL   H11   21     0.039200      1.00800 ; qtot -0.407
    22   hc     1   UNL   H12   22     0.039200      1.00800 ; qtot -0.368
    23   hc     1   UNL   H13   23     0.039200      1.00800 ; qtot -0.329
    24   hc     1   UNL   H14   24     0.039200      1.00800 ; qtot -0.290
    25   hc     1   UNL   H15   25     0.039200      1.00800 ; qtot -0.250
    26   hc     1   UNL   H16   26     0.038950      1.00800 ; qtot -0.211
    27   hc     1   UNL   H17   27     0.038950      1.00800 ; qtot -0.173
    28   hc     1   UNL   H18   28     0.037700      1.00800 ; qtot -0.135
    29   hc     1   UNL   H19   29     0.037700      1.00800 ; qtot -0.097
    30   hc     1   UNL   H20   30     0.032367      1.00800 ; qtot -0.065
    31   hc     1   UNL   H21   31     0.032367      1.00800 ; qtot -0.032
    32   hc     1   UNL   H22   32     0.032367      1.00800 ; qtot -0.000
    33   c3     2   UNL    C1   33    -0.092601     12.01000 ; qtot -0.093
    34   c3     2   UNL    C2   34    -0.079400     12.01000 ; qtot -0.172
    35   c3     2   UNL    C3   35    -0.078400     12.01000 ; qtot -0.250
    36   c3     2   UNL    C4   36    -0.078400     12.01000 ; qtot -0.329
    37   c3     2   UNL    C5   37    -0.078400     12.01000 ; qtot -0.407
    38   c3     2   UNL    C6   38    -0.078400     12.01000 ; qtot -0.486
    39   c3     2   UNL    C7   39    -0.078400     12.01000 ; qtot -0.564
    40   c3     2   UNL    C8   40    -0.078400     12.01000 ; qtot -0.642
    41   c3     2   UNL    C9   41    -0.079400     12.01000 ; qtot -0.722
    42   c3     2   UNL   C10   42    -0.092601     12.01000 ; qtot -0.814
    43   hc     2   UNL    H1   43     0.032367      1.00800 ; qtot -0.782
    44   hc     2   UNL    H2   44     0.032367      1.00800 ; qtot -0.750
    45   hc     2   UNL    H3   45     0.032367      1.00800 ; qtot -0.717
    46   hc     2   UNL    H4   46     0.037700      1.00800 ; qtot -0.680
    47   hc     2   UNL    H5   47     0.037700      1.00800 ; qtot -0.642
    48   hc     2   UNL    H6   48     0.038950      1.00800 ; qtot -0.603
    49   hc     2   UNL    H7   49     0.038950      1.00800 ; qtot -0.564
    50   hc     2   UNL    H8   50     0.039200      1.00800 ; qtot -0.525
    51   hc     2   UNL    H9   51     0.039200      1.00800 ; qtot -0.486
    52   hc     2   UNL   H10   52     0.039200      1.00800 ; qtot -0.446
    53   hc     2   UNL   H11   53     0.039200      1.00800 ; qtot -0.407
    54   hc     2   UNL   H12   54     0.039200      1.00800 ; qtot -0.368
    55   hc     2   UNL   H13   55     0.039200      1.00800 ; qtot -0.329
    56   hc     2   UNL   H14   56     0.039200      1.00800 ; qtot -0.290
    57   hc     2   UNL   H15   57     0.039200      1.00800 ; qtot -0.250
    58   hc     2   UNL   H16   58     0.038950      1.00800 ; qtot -0.211
    59   hc     2   UNL   H17   59     0.038950      1.00800 ; qtot -0.173
    60   hc     2   UNL   H18   60     0.037700      1.00800 ; qtot -0.135
    61   hc     2   UNL   H19   61     0.037700      1.00800 ; qtot -0.097
    62   hc     2   UNL   H20   62     0.032367      1.00800 ; qtot -0.065
    63   hc     2   UNL   H21   63     0.032367      1.00800 ; qtot -0.032
    64   hc     2   UNL   H22   64     0.032367      1.00800 ; qtot -0.000
    65   c3     3   UNL    C1   65    -0.092601     12.01000 ; qtot -0.093
    66   c3     3   UNL    C2   66    -0.079400     12.01000 ; qtot -0.172
    67   c3     3   UNL    C3   67    -0.078400     12.01000 ; qtot -0.250
    68   c3     3   UNL    C4   68    -0.078400     12.01000 ; qtot -0.329
    69   c3     3   UNL    C5   69    -0.078400     12.01000 ; qtot -0.407
    70   c3     3   UNL    C6   70    -0.078400     12.01000 ; qtot -0.486
    71   c3     3   UNL    C7   71    -0.078400     12.01000 ; qtot -0.564
    72   c3     3   UNL    C8   72    -0.078400     12.01000 ; qtot -0.642
    73   c3     3   UNL    C9   73    -0.079400     12.01000 ; qtot -0.722
    74   c3     3   UNL   C10   74    -0.092601     12.01000 ; qtot -0.814
    75   hc     3   UNL    H1   75     0.032367      1.00800 ; qtot -0.782
    76   hc     3   UNL    H2   76     0.032367      1.00800 ; qtot -0.750
    77   hc     3   UNL    H3   77     0.032367      1.00800 ; qtot -0.717
    78   hc     3   UNL    H4   78     0.037700      1.00800 ; qtot -0.680
    79   hc     3   UNL    H5   79     0.037700      1.00800 ; qtot -0.642
    80   hc     3   UNL    H6   80     0.038950      1.00800 ; qtot -0.603
    81   hc     3   UNL    H7   81     0.038950      1.00800 ; qtot -0.564
    82   hc     3   UNL    H8   82     0.039200      1.00800 ; qtot -0.525
    83   hc     3   UNL    H9   83     0.039200      1.00800 ; qtot -0.486
    84   hc     3   UNL   H10   84     0.039200      1.00800 ; qtot -0.446
    85   hc     3   UNL   H11   85     0.039200      1.00800 ; qtot -0.407
    86   hc     3   UNL   H12   86     0.039200      1.00800 ; qtot -0.368
    87   hc     3   UNL   H13   87     0.039200      1.00800 ; qtot -0.329
    88   hc     3   UNL   H14   88     0.039200      1.00800 ; qtot -0.290
    89   hc     3   UNL   H15   89     0.039200      1.00800 ; qtot -0.250
    90   hc     3   UNL   H16   90     0.038950      1.00800 ; qtot -0.211
    91   hc     3   UNL   H17   91     0.038950      1.00800 ; qtot -0.173
    92   hc     3   UNL   H18   92     0.037700      1.00800 ; qtot -0.135
    93   hc     3   UNL   H19   93     0.037700      1.00800 ; qtot -0.097
    94   hc     3   UNL   H20   94     0.032367      1.00800 ; qtot -0.065
    95   hc     3   UNL   H21   95     0.032367      1.00800 ; qtot -0.032
    96   hc     3   UNL   H22   96     0.032367      1.00800 ; qtot -0.000
    97   c3     4   UNL    C1   97    -0.092601     12.01000 ; qtot -0.093
    98   c3     4   UNL    C2   98    -0.079400     12.01000 ; qtot -0.172
    99   c3     4   UNL    C3   99    -0.078400     12.01000 ; qtot -0.250
   100   c3     4   UNL    C4  100    -0.078400     12.01000 ; qtot -0.329
   101   c3     4   UNL    C5  101    -0.078400     12.01000 ; qtot -0.407
   102   c3     4   UNL    C6  102    -0.078400     12.01000 ; qtot -0.486
   103   c3     4   UNL    C7  103    -0.078400     12.01000 ; qtot -0.564
   104   c3     4   UNL    C8  104    -0.078400     12.01000 ; qtot -0.642
   105   c3     4   UNL    C9  105    -0.079400     12.01000 ; qtot -0.722
   106   c3     4   UNL   C10  106    -0.092601     12.01000 ; qtot -0.814
   107   hc     4   UNL    H1  107     0.032367      1.00800 ; qtot -0.782
   108   hc     4   UNL    H2  108     0.032367      1.00800 ; qtot -0.750
   109   hc     4   UNL    H3  109     0.032367      1.00800 ; qtot -0.717
   110   hc     4   UNL    H4  110     0.037700      1.00800 ; qtot -0.680
   111   hc     4   UNL    H5  111     0.037700      1.00800 ; qtot -0.642
   112   hc     4   UNL    H6  112     0.038950      1.00800 ; qtot -0.603
   113   hc     4   UNL    H7  113     0.038950      1.00800 ; qtot -0.564
   114   hc     4   UNL    H8  114     0.039200      1.00800 ; qtot -0.525
   115   hc     4   UNL    H9  115     0.039200      1.00800 ; qtot -0.486
   116   hc     4   UNL   H10  116     0.039200      1.00800 ; qtot -0.446
   117   hc     4   UNL   H11  117     0.039200      1.00800 ; qtot -0.407
   118   hc     4   UNL   H12  118     0.039200      1.00800 ; qtot -0.368
   119   hc     4   UNL   H13  119     0.039200      1.00800 ; qtot -0.329
   120   hc     4   UNL   H14  120     0.039200      1.00800 ; qtot -0.290
   121   hc     4   UNL   H15  121     0.039200      1.00800 ; qtot -0.250
   122   hc     4   UNL   H16  122     0.038950      1.00800 ; qtot -0.211
   123   hc     4   UNL   H17  123     0.038950      1.00800 ; qtot -0.173
   124   hc     4   UNL   H18  124     0.037700      1.00800 ; qtot -0.135
   125   hc     4   UNL   H19  125     0.037700      1.00800 ; qtot -0.097
   126   hc     4   UNL   H20  126     0.032367      1.00800 ; qtot -0.065
   127   hc     4   UNL   H21  127     0.032367      1.00800 ; qtot -0.032
   128   hc     4   UNL   H22  128     0.032367      1.00800 ; qtot -0.000
   129   c3     5   UNL    C1  129    -0.092601     12.01000 ; qtot -0.093
   130   c3     5   UNL    C2  130    -0.079400     12.01000 ; qtot -0.172
   131   c3     5   UNL    C3  131    -0.078400     12.01000 ; qtot -0.250
   132   c3     5   UNL    C4  132    -0.078400     12.01000 ; qtot -0.329
   133   c3     5   UNL    C5  133    -0.078400     12.01000 ; qtot -0.407
   134   c3     5   UNL    C6  134    -0.078400     12.01000 ; qtot -0.486
   135   c3     5   UNL    C7  135    -0.078400     12.01000 ; qtot -0.564
   136   c3     5   UNL    C8  136    -0.078400     12.01000 ; qtot -0.642
   137   c3     5   UNL    C9  137    -0.079400     12.01000 ; qtot -0.722
   138   c3     5   UNL   C10  138    -0.092601     12.01000 ; qtot -0.814
   139   hc     5   UNL    H1  139     0.032367      1.00800 ; qtot -0.782
   140   hc     5   UNL    H2  140     0.032367      1.00800 ; qtot -0.750
   141   hc     5   UNL    H3  141     0.032367      1.00800 ; qtot -0.717
   142   hc     5   UNL    H4  142     0.037700      1.00800 ; qtot -0.680
   143   hc     5   UNL    H5  143     0.037700      1.00800 ; qtot -0.642
   144   hc     5   UNL    H6  144     0.038950      1.00800 ; qtot -0.603
   145   hc     5   UNL    H7  145     0.038950      1.00800 ; qtot -0.564
   146   hc     5   UNL    H8  146     0.039200      1.00800 ; qtot -0.525
   147   hc     5   UNL    H9  147     0.039200      1.00800 ; qtot -0.486
   148   hc     5   UNL   H10  148     0.039200      1.00800 ; qtot -0.446
   149   hc     5   UNL   H11  149     0.039200      1.00800 ; qtot -0.407
   150   hc     5   UNL   H12  150     0.039200      1.00800 ; qtot -0.368
   151   hc     5   UNL   H13  151     0.039200      1.00800 ; qtot -0.329
   152   hc     5   UNL   H14  152     0.039200      1.00800 ; qtot -0.290
   153   hc     5   UNL   H15  153     0.039200      1.00800 ; qtot -0.250
   154   hc     5   UNL   H16  154     0.038950      1.00800 ; qtot -0.211
   155   hc     5   UNL   H17  155     0.038950      1.00800 ; qtot -0.173
   156   hc     5   UNL   H18  156     0.037700      1.00800 ; qtot -0.135
   157   hc     5   UNL   H19  157     0.037700      1.00800 ; qtot -0.097
   158   hc     5   UNL   H20  158     0.032367      1.00800 ; qtot -0.065
   159   hc     5   UNL   H21  159     0.032367      1.00800 ; qtot -0.032
   160   hc     5   UNL   H22  160     0.032367      1.00800 ; qtot -0.000
   161   c3     6   UNL    C1  161    -0.092601     12.01000 ; qtot -0.093
   162   c3     6   UNL    C2  162    -0.079400     12.01000 ; qtot -0.172
   163   c3     6   UNL    C3  163    -0.078400     12.01000 ; qtot -0.250
   164   c3     6   UNL    C4  164    -0.078400     12.01000 ; qtot -0.329
   165   c3     6   UNL    C5  165    -0.078400     12.01000 ; qtot -0.407
   166   c3     6   UNL    C6  166    -0.078400     12.01000 ; qtot -0.486
   167   c3     6   UNL    C7  167    -0.078400     12.01000 ; qtot -0.564
   168   c3     6   UNL    C8  168    -0.078400     12.01000 ; qtot -0.642
   169   c3     6   UNL    C9  169    -0.079400     12.01000 ; qtot -0.722
   170   c3     6   UNL   C10  170    -0.092601     12.01000 ; qtot -0.814
   171   hc     6   UNL    H1  171     0.032367      1.00800 ; qtot -0.782
   172   hc     6   UNL    H2  172     0.032367      1.00800 ; qtot -0.750
   173   hc     6   UNL    H3  173     0.032367      1.00800 ; qtot -0.717
   174   hc     6   UNL    H4  174     0.037700      1.00800 ; qtot -0.680
   175   hc     6   UNL    H5  175     0.037700      1.00800 ; qtot -0.642
   176   hc     6   UNL    H6  176     0.038950      1.00800 ; qtot -0.603
   177   hc     6   UNL    H7  177     0.038950      1.00800 ; qtot -0.564
   178   hc     6   UNL    H8  178     0.039200      1.00800 ; qtot -0.525
   179   hc     6   UNL    H9  179     0.039200      1.00800 ; qtot -0.486
   180   hc     6   UNL   H10  180     0.039200      1.00800 ; qtot -0.446
   181   hc     6   UNL   H11  181     0.039200      1.00800 ; qtot -0.407
   182   hc     6   UNL   H12  182     0.039200      1.00800 ; qtot -0.368
   183   hc     6   UNL   H13  183     0.039200      1.00800 ; qtot -0.329
   184   hc     6   UNL   H14  184     0.039200      1.00800 ; qtot -0.290
   185   hc     6   UNL   H15  185     0.039200      1.00800 ; qtot -0.250
   186   hc     6   UNL   H16  186     0.038950      1.00800 ; qtot -0.211
   187   hc     6   UNL   H17  187     0.038950      1.00800 ; qtot -0.173
   188   hc     6   UNL   H18  188     0.037700      1.00800 ; qtot -0.135
   189   hc     6   UNL   H19  189     0.037700      1.00800 ; qtot -0.097
   190   hc     6   UNL   H20  190     0.032367      1.00800 ; qtot -0.065
   191   hc     6   UNL   H21  191     0.032367      1.00800 ; qtot -0.032
   192   hc     6   UNL   H22  192     0.032367      1.00800 ; qtot -0.000
   193   c3     7   UNL    C1  193    -0.092601     12.01000 ; qtot -0.093
   194   c3     7   UNL    C2  194    -0.079400     12.01000 ; qtot -0.172
   195   c3     7   UNL    C3  195    -0.078400     12.01000 ; qtot -0.250
   196   c3     7   UNL    C4  196    -0.078400     12.01000 ; qtot -0.329
   197   c3     7   UNL    C5  197    -0.078400     12.01000 ; qtot -0.407
   198   c3     7   UNL    C6  198    -0.078400     12.01000 ; qtot -0.486
   199   c3     7   UNL    C7  199    -0.078400     12.01000 ; qtot -0.564
   200   c3     7   UNL    C8  200    -0.078400     12.01000 ; qtot -0.642
   201   c3     7   UNL    C9  201    -0.079400     12.01000 ; qtot -0.722
   202   c3     7   UNL   C10  202    -0.092601     12.01000 ; qtot -0.814
   203   hc     7   UNL    H1  203     0.032367      1.00800 ; qtot -0.782
   204   hc     7   UNL    H2  204     0.032367      1.00800 ; qtot -0.750
   205   hc     7   UNL    H3  205     0.032367      1.00800 ; qtot -0.717
   206   hc     7   UNL    H4  206     0.037700      1.00800 ; qtot -0.680
   207   hc     7   UNL    H5  207     0.037700      1.00800 ; qtot -0.642
   208   hc     7   UNL    H6  208     0.038950      1.00800 ; qtot -0.603
   209   hc     7   UNL    H7  209     0.038950      1.00800 ; qtot -0.564
   210   hc     7   UNL    H8  210     0.039200      1.00800 ; qtot -0.525
   211   hc     7   UNL    H9  211     0.039200      1.00800 ; qtot -0.486
   212   hc     7   UNL   H10  212     0.039200      1.00800 ; qtot -0.446
   213   hc     7   UNL   H11  213     0.039200      1.00800 ; qtot -0.407
   214   hc     7   UNL   H12  214     0.039200      1.00800 ; qtot -0.368
   215   hc     7   UNL   H13  215     0.039200      1.00800 ; qtot -0.329
   216   hc     7   UNL   H14  216     0.039200      1.00800 ; qtot -0.290
   217   hc     7   UNL   H15  217     0.039200      1.00800 ; qtot -0.250
   218   hc     7   UNL   H16  218     0.038950      1.00800 ; qtot -0.211
   219   hc     7   UNL   H17  219     0.038950      1.00800 ; qtot -0.173
   220   hc     7   UNL   H18  220     0.037700      1.00800 ; qtot -0.135
   221   hc     7   UNL   H19  221     0.037700      1.00800 ; qtot -0.097
   222   hc     7   UNL   H20  222     0.032367      1.00800 ; qtot -0.065
   223   hc     7   UNL   H21  223     0.032367      1.00800 ; qtot -0.032
   224   hc     7   UNL   H22  224     0.032367      1.00800 ; qtot -0.000
   225   c3     8   UNL    C1  225    -0.092601     12.01000 ; qtot -0.093
   226   c3     8   UNL    C2  226    -0.079400     12.01000 ; qtot -0.172
   227   c3     8   UNL    C3  227    -0.078400     12.01000 ; qtot -0.250
   228   c3     8   UNL    C4  228    -0.078400     12.01000 ; qtot -0.329
   229   c3     8   UNL    C5  229    -0.078400     12.01000 ; qtot -0.407
   230   c3     8   UNL    C6  230    -0.078400     12.01000 ; qtot -0.486
   231   c3     8   UNL    C7  231    -0.078400     12.01000 ; qtot -0.564
   232   c3     8   UNL    C8  232    -0.078400     12.01000 ; qtot -0.642
   233   c3     8   UNL    C9  233    -0.079400     12.01000 ; qtot -0.722
   234   c3     8   UNL   C10  234    -0.092601     12.01000 ; qtot -0.814
   235   hc     8   UNL    H1  235     0.032367      1.00800 ; qtot -0.782
   236   hc     8   UNL    H2  236     0.032367      1.00800 ; qtot -0.750
   237   hc     8   UNL    H3  237     0.032367      1.00800 ; qtot -0.717
   238   hc     8   UNL    H4  238     0.037700      1.00800 ; qtot -0.680
   239   hc     8   UNL    H5  239     0.037700      1.00800 ; qtot -0.642
   240   hc     8   UNL    H6  240     0.038950      1.00800 ; qtot -0.603
   241   hc     8   UNL    H7  241     0.038950      1.00800 ; qtot -0.564
   242   hc     8   UNL    H8  242     0.039200      1.00800 ; qtot -0.525
   243   hc     8   UNL    H9  243     0.039200      1.00800 ; qtot -0.486
   244   hc     8   UNL   H10  244     0.039200      1.00800 ; qtot -0.446
   245   hc     8   UNL   H11  245     0.039200      1.00800 ; qtot -0.407
   246   hc     8   UNL   H12  246     0.039200      1.00800 ; qtot -0.368
   247   hc     8   UNL   H13  247     0.039200      1.00800 ; qtot -0.329
   248   hc     8   UNL   H14  248     0.039200      1.00800 ; qtot -0.290
   249   hc     8   UNL   H15  249     0.039200      1.00800 ; qtot -0.250
   250   hc     8   UNL   H16  250     0.038950      1.00800 ; qtot -0.211
   251   hc     8   UNL   H17  251     0.038950      1.00800 ; qtot -0.173
   252   hc     8   UNL   H18  252     0.037700      1.00800 ; qtot -0.135
   253   hc     8   UNL   H19  253     0.037700      1.00800 ; qtot -0.097
   254   hc     8   UNL   H20  254     0.032367      1.00800 ; qtot -0.065
   255   hc     8   UNL   H21  255     0.032367      1.00800 ; qtot -0.032
   256   hc     8   UNL   H22  256     0.032367      1.00800 ; qtot -0.000
   257   c3     9   UNL    C1  257    -0.092601     12.01000 ; qtot -0.093
   258   c3     9   UNL    C2  258    -0.079400     12.01000 ; qtot -0.172
   259   c3     9   UNL    C3  259    -0.078400     12.01000 ; qtot -0.250
   260   c3     9   UNL    C4  260    -0.078400     12.01000 ; qtot -0.329
   261   c3     9   UNL    C5  261    -0.078400     12.01000 ; qtot -0.407
   262   c3     9   UNL    C6  262    -0.078400     12.01000 ; qtot -0.486
   263   c3     9   UNL    C7  263    -0.078400     12.01000 ; qtot -0.564
   264   c3     9   UNL    C8  264    -0.078400     12.01000 ; qtot -0.642
   265   c3     9   UNL    C9  265    -0.079400     12.01000 ; qtot -0.722
   266   c3     9   UNL   C10  266    -0.092601     12.01000 ; qtot -0.814
   267   hc     9   UNL    H1  267     0.032367      1.00800 ; qtot -0.782
   268   hc     9   UNL    H2  268     0.032367      1.00800 ; qtot -0.750
   269   hc     9   UNL    H3  269     0.032367      1.00800 ; qtot -0.717
   270   hc     9   UNL    H4  270     0.037700      1.00800 ; qtot -0.680
   271   hc     9   UNL    H5  271     0.037700      1.00800 ; qtot -0.642
   272   hc     9   UNL    H6  272     0.038950      1.00800 ; qtot -0.603
   273   hc     9   UNL    H7  273     0.038950      1.00800 ; qtot -0.564
   274   hc     9   UNL    H8  274     0.039200      1.00800 ; qtot -0.525
   275   hc     9   UNL    H9  275     0.039200      1.00800 ; qtot -0.486
   276   hc     9   UNL   H10  276     0.039200      1.00800 ; qtot -0.446
   277   hc     9   UNL   H11  277     0.039200      1.00800 ; qtot -0.407
   278   hc     9   UNL   H12  278     0.039200      1.00800 ; qtot -0.368
   279   hc     9   UNL   H13  279     0.039200      1.00800 ; qtot -0.329
   280   hc     9   UNL   H14  280     0.039200      1.00800 ; qtot -0.290
   281   hc     9   UNL   H15  281     0.039200      1.00800 ; qtot -0.250
   282   hc     9   UNL   H16  282     0.038950      1.00800 ; qtot -0.211
   283   hc     9   UNL   H17  283     0.038950      1.00800 ; qtot -0.173
   284   hc     9   UNL   H18  284     0.037700      1.00800 ; qtot -0.135
   285   hc     9   UNL   H19  285     0.037700      1.00800 ; qtot -0.097
   286   hc     9   UNL   H20  286     0.032367      1.00800 ; qtot -0.065
   287   hc     9   UNL   H21  287     0.032367      1.00800 ; qtot -0.032
   288   hc     9   UNL   H22  288     0.032367      1.00800 ; qtot -0.000
   289   c3    10   UNL    C1  289    -0.092601     12.01000 ; qtot -0.093
   290   c3    10   UNL    C2  290    -0.079400     12.01000 ; qtot -0.172
   291   c3    10   UNL    C3  291    -0.078400     12.01000 ; qtot -0.250
   292   c3    10   UNL    C4  292    -0.078400     12.01000 ; qtot -0.329
   293   c3    10   UNL    C5  293    -0.078400     12.01000 ; qtot -0.407
   294   c3    10   UNL    C6  294    -0.078400     12.01000 ; qtot -0.486
   295   c3    10   UNL    C7  295    -0.078400     12.01000 ; qtot -0.564
   296   c3    10   UNL    C8  296    -0.078400     12.01000 ; qtot -0.642
   297   c3    10   UNL    C9  297    -0.079400     12.01000 ; qtot -0.722
   298   c3    10   UNL   C10  298    -0.092601     12.01000 ; qtot -0.814
   299   hc    10   UNL    H1  299     0.032367      1.00800 ; qtot -0.782
   300   hc    10   UNL    H2  300     0.032367      1.00800 ; qtot -0.750
   301   hc    10   UNL    H3  301     0.032367      1.00800 ; qtot -0.717
   302   hc    10   UNL    H4  302     0.037700      1.00800 ; qtot -0.680
   303   hc    10   UNL    H5  303     0.037700      1.00800 ; qtot -0.642
   304   hc    10   UNL    H6  304     0.038950      1.00800 ; qtot -0.603
   305   hc    10   UNL    H7  305     0.038950      1.00800 ; qtot -0.564
   306   hc    10   UNL    H8  306     0.039200      1.00800 ; qtot -0.525
   307   hc    10   UNL    H9  307     0.039200      1.00800 ; qtot -0.486
   308   hc    10   UNL   H10  308     0.039200      1.00800 ; qtot -0.446
   309   hc    10   UNL   H11  309     0.039200      1.00800 ; qtot -0.407
   310   hc    10   UNL   H12  310     0.039200      1.00800 ; qtot -0.368
   311   hc    10   UNL   H13  311     0.039200      1.00800 ; qtot -0.329
   312   hc    10   UNL   H14  312     0.039200      1.00800 ; qtot -0.290
   313   hc    10   UNL   H15  313     0.039200      1.00800 ; qtot -0.250
   314   hc    10   UNL   H16  314     0.038950      1.00800 ; qtot -0.211
   315   hc    10   UNL   H17  315     0.038950      1.00800 ; qtot -0.173
   316   hc    10   UNL   H18  316     0.037700      1.00800 ; qtot -0.135
   317   hc    10   UNL   H19  317     0.037700      1.00800 ; qtot -0.097
   318   hc    10   UNL   H20  318     0.032367      1.00800 ; qtot -0.065
   319   hc    10   UNL   H21  319     0.032367      1.00800 ; qtot -0.032
   320   hc    10   UNL   H22  320     0.032367      1.00800 ; qtot -0.000
   321   c3    11   UNL    C1  321    -0.092601     12.01000 ; qtot -0.093
   322   c3    11   UNL    C2  322    -0.079400     12.01000 ; qtot -0.172
   323   c3    11   UNL    C3  323    -0.078400     12.01000 ; qtot -0.250
   324   c3    11   UNL    C4  324    -0.078400     12.01000 ; qtot -0.329
   325   c3    11   UNL    C5  325    -0.078400     12.01000 ; qtot -0.407
   326   c3    11   UNL    C6  326    -0.078400     12.01000 ; qtot -0.486
   327   c3    11   UNL    C7  327    -0.078400     12.01000 ; qtot -0.564
   328   c3    11   UNL    C8  328    -0.078400     12.01000 ; qtot -0.642
   329   c3    11   UNL    C9  329    -0.079400     12.01000 ; qtot -0.722
   330   c3    11   UNL   C10  330    -0.092601     12.01000 ; qtot -0.814
   331   hc    11   UNL    H1  331     0.032367      1.00800 ; qtot -0.782
   332   hc    11   UNL    H2  332     0.032367      1.00800 ; qtot -0.750
   333   hc    11   UNL    H3  333     0.032367      1.00800 ; qtot -0.717
   334   hc    11   UNL    H4  334     0.037700      1.00800 ; qtot -0.680
   335   hc    11   UNL    H5  335     0.037700      1.00800 ; qtot -0.642
   336   hc    11   UNL    H6  336     0.038950      1.00800 ; qtot -0.603
   337   hc    11   UNL    H7  337     0.038950      1.00800 ; qtot -0.564
   338   hc    11   UNL    H8  338     0.039200      1.00800 ; qtot -0.525
   339   hc    11   UNL    H9  339     0.039200      1.00800 ; qtot -0.486
   340   hc    11   UNL   H10  340     0.039200      1.00800 ; qtot -0.446
   341   hc    11   UNL   H11  341     0.039200      1.00800 ; qtot -0.407
   342   hc    11   UNL   H12  342     0.039200      1.00800 ; qtot -0.368
   343   hc    11   UNL   H13  343     0.039200      1.00800 ; qtot -0.329
   344   hc    11   UNL   H14  344     0.039200      1.00800 ; qtot -0.290
   345   hc    11   UNL   H15  345     0.039200      1.00800 ; qtot -0.250
   346   hc    11   UNL   H16  346     0.038950      1.00800 ; qtot -0.211
   347   hc    11   UNL   H17  347     0.038950      1.00800 ; qtot -0.173
   348   hc    11   UNL   H18  348     0.037700      1.00800 ; qtot -0.135
   349   hc    11   UNL   H19  349     0.037700      1.00800 ; qtot -0.097
   350   hc    11   UNL   H20  350     0.032367      1.00800 ; qtot -0.065
   351   hc    11   UNL   H21  351     0.032367      1.00800 ; qtot -0.032
   352   hc    11   UNL   H22  352     0.032367      1.00800 ; qtot -0.000
   353   c3    12   UNL    C1  353    -0.092601     12.01000 ; qtot -0.093
   354   c3    12   UNL    C2  354    -0.079400     12.01000 ; qtot -0.172
   355   c3    12   UNL    C3  355    -0.078400     12.01000 ; qtot -0.250
   356   c3    12   UNL    C4  356    -0.078400     12.01000 ; qtot -0.329
   357   c3    12   UNL    C5  357    -0.078400     12.01000 ; qtot -0.407
   358   c3    12   UNL    C6  358    -0.078400     12.01000 ; qtot -0.486
   359   c3    12   UNL    C7  359    -0.078400     12.01000 ; qtot -0.564
   360   c3    12   UNL    C8  360    -0.078400     12.01000 ; qtot -0.642
   361   c3    12   UNL    C9  361    -0.079400     12.01000 ; qtot -0.722
   362   c3    12   UNL   C10  362    -0.092601     12.01000 ; qtot -0.814
   363   hc    12   UNL    H1  363     0.032367      1.00800 ; qtot -0.782
   364   hc    12   UNL    H2  364     0.032367      1.00800 ; qtot -0.750
   365   hc    12   UNL    H3  365     0.032367      1.00800 ; qtot -0.717
   366   hc    12   UNL    H4  366     0.037700      1.00800 ; qtot -0.680
   367   hc    12   UNL    H5  367     0.037700      1.00800 ; qtot -0.642
   368   hc    12   UNL    H6  368     0.038950      1.00800 ; qtot -0.603
   369   hc    12   UNL    H7  369     0.038950      1.00800 ; qtot -0.564
   370   hc    12   UNL    H8  370     0.039200      1.00800 ; qtot -0.525
   371   hc    12   UNL    H9  371     0.039200      1.00800 ; qtot -0.486
   372   hc    12   UNL   H10  372     0.039200      1.00800 ; qtot -0.446
   373   hc    12   UNL   H11  373     0.039200      1.00800 ; qtot -0.407
   374   hc    12   UNL   H12  374     0.039200      1.00800 ; qtot -0.368
   375   hc    12   UNL   H13  375     0.039200      1.00800 ; qtot -0.329
   376   hc    12   UNL   H14  376     0.039200      1.00800 ; qtot -0.290
   377   hc    12   UNL   H15  377     0.039200      1.00800 ; qtot -0.250
   378   hc    12   UNL   H16  378     0.038950      1.00800 ; qtot -0.211
   379   hc    12   UNL   H17  379     0.038950      1.00800 ; qtot -0.173
   380   hc    12   UNL   H18  380     0.037700      1.00800 ; qtot -0.135
   381   hc    12   UNL   H19  381     0.037700      1.00800 ; qtot -0.097
   382   hc    12   UNL   H20  382     0.032367      1.00800 ; qtot -0.065
   383   hc    12   UNL   H21  383     0.032367      1.00800 ; qtot -0.032
   384   hc    12   UNL   H22  384     0.032367      1.00800 ; qtot -0.000
   385   c3    13   UNL    C1  385    -0.092601     12.01000 ; qtot -0.093
   386   c3    13   UNL    C2  386    -0.079400     12.01000 ; qtot -0.172
   387   c3    13   UNL    C3  387    -0.078400     12.01000 ; qtot -0.250
   388   c3    13   UNL    C4  388    -0.078400     12.01000 ; qtot -0.329
   389   c3    13   UNL    C5  389    -0.078400     12.01000 ; qtot -0.407
   390   c3    13   UNL    C6  390    -0.078400     12.01000 ; qtot -0.486
   391   c3    13   UNL    C7  391    -0.078400     12.01000 ; qtot -0.564
   392   c3    13   UNL    C8  392    -0.078400     12.01000 ; qtot -0.642
   393   c3    13   UNL    C9  393    -0.079400     12.01000 ; qtot -0.722
   394   c3    13   UNL   C10  394    -0.092601     12.01000 ; qtot -0.814
   395   hc    13   UNL    H1  395     0.032367      1.00800 ; qtot -0.782
   396   hc    13   UNL    H2  396     0.032367      1.00800 ; qtot -0.750
   397   hc    13   UNL    H3  397     0.032367      1.00800 ; qtot -0.717
   398   hc    13   UNL    H4  398     0.037700      1.00800 ; qtot -0.680
   399   hc    13   UNL    H5  399     0.037700      1.00800 ; qtot -0.642
   400   hc    13   UNL    H6  400     0.038950      1.00800 ; qtot -0.603
   401   hc    13   UNL    H7  401     0.038950      1.00800 ; qtot -0.564
   402   hc    13   UNL    H8  402     0.039200      1.00800 ; qtot -0.525
   403   hc    13   UNL    H9  403     0.039200      1.00800 ; qtot -0.486
   404   hc    13   UNL   H10  404     0.039200      1.00800 ; qtot -0.446
   405   hc    13   UNL   H11  405     0.039200      1.00800 ; qtot -0.407
   406   hc    13   UNL   H12  406     0.039200      1.00800 ; qtot -0.368
   407   hc    13   UNL   H13  407     0.039200      1.00800 ; qtot -0.329
   408   hc    13   UNL   H14  408     0.039200      1.00800 ; qtot -0.290
   409   hc    13   UNL   H15  409     0.039200      1.00800 ; qtot -0.250
   410   hc    13   UNL   H16  410     0.038950      1.00800 ; qtot -0.211
   411   hc    13   UNL   H17  411     0.038950      1.00800 ; qtot -0.173
   412   hc    13   UNL   H18  412     0.037700      1.00800 ; qtot -0.135
   413   hc    13   UNL   H19  413     0.037700      1.00800 ; qtot -0.097
   414   hc    13   UNL   H20  414     0.032367      1.00800 ; qtot -0.065
   415   hc    13   UNL   H21  415     0.032367      1.00800 ; qtot -0.032
   416   hc    13   UNL   H22  416     0.032367      1.00800 ; qtot -0.000
   417   c3    14   UNL    C1  417    -0.092601     12.01000 ; qtot -0.093
   418   c3    14   UNL    C2  418    -0.079400     12.01000 ; qtot -0.172
   419   c3    14   UNL    C3  419    -0.078400     12.01000 ; qtot -0.250
   420   c3    14   UNL    C4  420    -0.078400     12.01000 ; qtot -0.329
   421   c3    14   UNL    C5  421    -0.078400     12.01000 ; qtot -0.407
   422   c3    14   UNL    C6  422    -0.078400     12.01000 ; qtot -0.486
   423   c3    14   UNL    C7  423    -0.078400     12.01000 ; qtot -0.564
   424   c3    14   UNL    C8  424    -0.078400     12.01000 ; qtot -0.642
   425   c3    14   UNL    C9  425    -0.079400     12.01000 ; qtot -0.722
   426   c3    14   UNL   C10  426    -0.092601     12.01000 ; qtot -0.814
   427   hc    14   UNL    H1  427     0.032367      1.00800 ; qtot -0.782
   428   hc    14   UNL    H2  428     0.032367      1.00800 ; qtot -0.750
   429   hc    14   UNL    H3  429     0.032367      1.00800 ; qtot -0.717
   430   hc    14   UNL    H4  430     0.037700      1.00800 ; qtot -0.680
   431   hc    14   UNL    H5  431     0.037700      1.00800 ; qtot -0.642
   432   hc    14   UNL    H6  432     0.038950      1.00800 ; qtot -0.603
   433   hc    14   UNL    H7  433     0.038950      1.00800 ; qtot -0.564
   434   hc    14   UNL    H8  434     0.039200      1.00800 ; qtot -0.525
   435   hc    14   UNL    H9  435     0.039200      1.00800 ; qtot -0.486
   436   hc    14   UNL   H10  436     0.039200      1.00800 ; qtot -0.446
   437   hc    14   UNL   H11  437     0.039200      1.00800 ; qtot -0.407
   438   hc    14   UNL   H12  438     0.039200      1.00800 ; qtot -0.368
   439   hc    14   UNL   H13  439     0.039200      1.00800 ; qtot -0.329
   440   hc    14   UNL   H14  440     0.039200      1.00800 ; qtot -0.290
   441   hc    14   UNL   H15  441     0.039200      1.00800 ; qtot -0.250
   442   hc    14   UNL   H16  442     0.038950      1.00800 ; qtot -0.211
   443   hc    14   UNL   H17  443     0.038950      1.00800 ; qtot -0.173
   444   hc    14   UNL   H18  444     0.037700      1.00800 ; qtot -0.135
   445   hc    14   UNL   H19  445     0.037700      1.00800 ; qtot -0.097
   446   hc    14   UNL   H20  446     0.032367      1.00800 ; qtot -0.065
   447   hc    14   UNL   H21  447     0.032367      1.00800 ; qtot -0.032
   448   hc    14   UNL   H22  448     0.032367      1.00800 ; qtot -0.000
   449   c3    15   UNL    C1  449    -0.092601     12.01000 ; qtot -0.093
   450   c3    15   UNL    C2  450    -0.079400     12.01000 ; qtot -0.172
   451   c3    15   UNL    C3  451    -0.078400     12.01000 ; qtot -0.250
   452   c3    15   UNL    C4  452    -0.078400     12.01000 ; qtot -0.329
   453   c3    15   UNL    C5  453    -0.078400     12.01000 ; qtot -0.407
   454   c3    15   UNL    C6  454    -0.078400     12.01000 ; qtot -0.486
   455   c3    15   UNL    C7  455    -0.078400     12.01000 ; qtot -0.564
   456   c3    15   UNL    C8  456    -0.078400     12.01000 ; qtot -0.642
   457   c3    15   UNL    C9  457    -0.079400     12.01000 ; qtot -0.722
   458   c3    15   UNL   C10  458    -0.092601     12.01000 ; qtot -0.814
   459   hc    15   UNL    H1  459     0.032367      1.00800 ; qtot -0.782
   460   hc    15   UNL    H2  460     0.032367      1.00800 ; qtot -0.750
   461   hc    15   UNL    H3  461     0.032367      1.00800 ; qtot -0.717
   462   hc    15   UNL    H4  462     0.037700      1.00800 ; qtot -0.680
   463   hc    15   UNL    H5  463     0.037700      1.00800 ; qtot -0.642
   464   hc    15   UNL    H6  464     0.038950      1.00800 ; qtot -0.603
   465   hc    15   UNL    H7  465     0.038950      1.00800 ; qtot -0.564
   466   hc    15   UNL    H8  466     0.039200      1.00800 ; qtot -0.525
   467   hc    15   UNL    H9  467     0.039200      1.00800 ; qtot -0.486
   468   hc    15   UNL   H10  468     0.039200      1.00800 ; qtot -0.446
   469   hc    15   UNL   H11  469     0.039200      1.00800 ; qtot -0.407
   470   hc    15   UNL   H12  470     0.039200      1.00800 ; qtot -0.368
   471   hc    15   UNL   H13  471     0.039200      1.00800 ; qtot -0.329
   472   hc    15   UNL   H14  472     0.039200      1.00800 ; qtot -0.290
   473   hc    15   UNL   H15  473     0.039200      1.00800 ; qtot -0.250
   474   hc    15   UNL   H16  474     0.038950      1.00800 ; qtot -0.211
   475   hc    15   UNL   H17  475     0.038950      1.00800 ; qtot -0.173
   476   hc    15   UNL   H18  476     0.037700      1.00800 ; qtot -0.135
   477   hc    15   UNL   H19  477     0.037700      1.00800 ; qtot -0.097
   478   hc    15   UNL   H20  478     0.032367      1.00800 ; qtot -0.065
   479   hc    15   UNL   H21  479     0.032367      1.00800 ; qtot -0.032
   480   hc    15   UNL   H22  480     0.032367      1.00800 ; qtot -0.000
   481   c3    16   UNL    C1  481    -0.092601     12.01000 ; qtot -0.093
   482   c3    16   UNL    C2  482    -0.079400     12.01000 ; qtot -0.172
   483   c3    16   UNL    C3  483    -0.078400     12.01000 ; qtot -0.250
   484   c3    16   UNL    C4  484    -0.078400     12.01000 ; qtot -0.329
   485   c3    16   UNL    C5  485    -0.078400     12.01000 ; qtot -0.407
   486   c3    16   UNL    C6  486    -0.078400     12.01000 ; qtot -0.486
   487   c3    16   UNL    C7  487    -0.078400     12.01000 ; qtot -0.564
   488   c3    16   UNL    C8  488    -0.078400     12.01000 ; qtot -0.642
   489   c3    16   UNL    C9  489    -0.079400     12.01000 ; qtot -0.722
   490   c3    16   UNL   C10  490    -0.092601     12.01000 ; qtot -0.814
   491   hc    16   UNL    H1  491     0.032367      1.00800 ; qtot -0.782
   492   hc    16   UNL    H2  492     0.032367      1.00800 ; qtot -0.750
   493   hc    16   UNL    H3  493     0.032367      1.00800 ; qtot -0.717
   494   hc    16   UNL    H4  494     0.037700      1.00800 ; qtot -0.680
   495   hc    16   UNL    H5  495     0.037700      1.00800 ; qtot -0.642
   496   hc    16   UNL    H6  496     0.038950      1.00800 ; qtot -0.603
   497   hc    16   UNL    H7  497     0.038950      1.00800 ; qtot -0.564
   498   hc    16   UNL    H8  498     0.039200      1.00800 ; qtot -0.525
   499   hc    16   UNL    H9  499     0.039200      1.00800 ; qtot -0.486
   500   hc    16   UNL   H10  500     0.039200      1.00800 ; qtot -0.446
   501   hc    16   UNL   H11  501     0.039200      1.00800 ; qtot -0.407
   502   hc    16   UNL   H12  502     0.039200      1.00800 ; qtot -0.368
   503   hc    16   UNL   H13  503     0.039200      1.00800 ; qtot -0.329
   504   hc    16   UNL   H14  504     0.039200      1.00800 ; qtot -0.290
   505   hc    16   UNL   H15  505     0.039200      1.00800 ; qtot -0.250
   506   hc    16   UNL   H16  506     0.038950      1.00800 ; qtot -0.211
   507   hc    16   UNL   H17  507     0.038950      1.00800 ; qtot -0.173
   508   hc    16   UNL   H18  508     0.037700      1.00800 ; qtot -0.135
   509   hc    16   UNL   H19  509     0.037700      1.00800 ; qtot -0.097
   510   hc    16   UNL   H20  510     0.032367      1.00800 ; qtot -0.065
   511   hc    16   UNL   H21  511     0.032367      1.00800 ; qtot -0.032
   512   hc    16   UNL   H22  512     0.032367      1.00800 ; qtot -0.000
   513   c3    17   UNL    C1  513    -0.092601     12.01000 ; qtot -0.093
   514   c3    17   UNL    C2  514    -0.079400     12.01000 ; qtot -0.172
   515   c3    17   UNL    C3  515    -0.078400     12.01000 ; qtot -0.250
   516   c3    17   UNL    C4  516    -0.078400     12.01000 ; qtot -0.329
   517   c3    17   UNL    C5  517    -0.078400     12.01000 ; qtot -0.407
   518   c3    17   UNL    C6  518    -0.078400     12.01000 ; qtot -0.486
   519   c3    17   UNL    C7  519    -0.078400     12.01000 ; qtot -0.564
   520   c3    17   UNL    C8  520    -0.078400     12.01000 ; qtot -0.642
   521   c3    17   UNL    C9  521    -0.079400     12.01000 ; qtot -0.722
   522   c3    17   UNL   C10  522    -0.092601     12.01000 ; qtot -0.814
   523   hc    17   UNL    H1  523     0.032367      1.00800 ; qtot -0.782
   524   hc    17   UNL    H2  524     0.032367      1.00800 ; qtot -0.750
   525   hc    17   UNL    H3  525     0.032367      1.00800 ; qtot -0.717
   526   hc    17   UNL    H4  526     0.037700      1.00800 ; qtot -0.680
   527   hc    17   UNL    H5  527     0.037700      1.00800 ; qtot -0.642
   528   hc    17   UNL    H6  528     0.038950      1.00800 ; qtot -0.603
   529   hc    17   UNL    H7  529     0.038950      1.00800 ; qtot -0.564
   530   hc    17   UNL    H8  530     0.039200      1.00800 ; qtot -0.525
   531   hc    17   UNL    H9  531     0.039200      1.00800 ; qtot -0.486
   532   hc    17   UNL   H10  532     0.039200      1.00800 ; qtot -0.446
   533   hc    17   UNL   H11  533     0.039200      1.00800 ; qtot -0.407
   534   hc    17   UNL   H12  534     0.039200      1.00800 ; qtot -0.368
   535   hc    17   UNL   H13  535     0.039200      1.00800 ; qtot -0.329
   536   hc    17   UNL   H14  536     0.039200      1.00800 ; qtot -0.290
   537   hc    17   UNL   H15  537     0.039200      1.00800 ; qtot -0.250
   538   hc    17   UNL   H16  538     0.038950      1.00800 ; qtot -0.211
   539   hc    17   UNL   H17  539     0.038950      1.00800 ; qtot -0.173
   540   hc    17   UNL   H18  540     0.037700      1.00800 ; qtot -0.135
   541   hc    17   UNL   H19  541     0.037700      1.00800 ; qtot -0.097
   542   hc    17   UNL   H20  542     0.032367      1.00800 ; qtot -0.065
   543   hc    17   UNL   H21  543     0.032367      1.00800 ; qtot -0.032
   544   hc    17   UNL   H22  544     0.032367      1.00800 ; qtot -0.000
   545   c3    18   UNL    C1  545    -0.092601     12.01000 ; qtot -0.093
   546   c3    18   UNL    C2  546    -0.079400     12.01000 ; qtot -0.172
   547   c3    18   UNL    C3  547    -0.078400     12.01000 ; qtot -0.250
   548   c3    18   UNL    C4  548    -0.078400     12.01000 ; qtot -0.329
   549   c3    18   UNL    C5  549    -0.078400     12.01000 ; qtot -0.407
   550   c3    18   UNL    C6  550    -0.078400     12.01000 ; qtot -0.486
   551   c3    18   UNL    C7  551    -0.078400     12.01000 ; qtot -0.564
   552   c3    18   UNL    C8  552    -0.078400     12.01000 ; qtot -0.642
   553   c3    18   UNL    C9  553    -0.079400     12.01000 ; qtot -0.722
   554   c3    18   UNL   C10  554    -0.092601     12.01000 ; qtot -0.814
   555   hc    18   UNL    H1  555     0.032367      1.00800 ; qtot -0.782
   556   hc    18   UNL    H2  556     0.032367      1.00800 ; qtot -0.750
   557   hc    18   UNL    H3  557     0.032367      1.00800 ; qtot -0.717
   558   hc    18   UNL    H4  558     0.037700      1.00800 ; qtot -0.680
   559   hc    18   UNL    H5  559     0.037700      1.00800 ; qtot -0.642
   560   hc    18   UNL    H6  560     0.038950      1.00800 ; qtot -0.603
   561   hc    18   UNL    H7  561     0.038950      1.00800 ; qtot -0.564
   562   hc    18   UNL    H8  562     0.039200      1.00800 ; qtot -0.525
   563   hc    18   UNL    H9  563     0.039200      1.00800 ; qtot -0.486
   564   hc    18   UNL   H10  564     0.039200      1.00800 ; qtot -0.446
   565   hc    18   UNL   H11  565     0.039200      1.00800 ; qtot -0.407
   566   hc    18   UNL   H12  566     0.039200      1.00800 ; qtot -0.368
   567   hc    18   UNL   H13  567     0.039200      1.00800 ; qtot -0.329
   568   hc    18   UNL   H14  568     0.039200      1.00800 ; qtot -0.290
   569   hc    18   UNL   H15  569     0.039200      1.00800 ; qtot -0.250
   570   hc    18   UNL   H16  570     0.038950      1.00800 ; qtot -0.211
   571   hc    18   UNL   H17  571     0.038950      1.00800 ; qtot -0.173
   572   hc    18   UNL   H18  572     0.037700      1.00800 ; qtot -0.135
   573   hc    18   UNL   H19  573     0.037700      1.00800 ; qtot -0.097
   574   hc    18   UNL   H20  574     0.032367      1.00800 ; qtot -0.065
   575   hc    18   UNL   H21  575     0.032367      1.00800 ; qtot -0.032
   576   hc    18   UNL   H22  576     0.032367      1.00800 ; qtot -0.000
   577   c3    19   UNL    C1  577    -0.092601     12.01000 ; qtot -0.093
   578   c3    19   UNL    C2  578    -0.079400     12.01000 ; qtot -0.172
   579   c3    19   UNL    C3  579    -0.078400     12.01000 ; qtot -0.250
   580   c3    19   UNL    C4  580    -0.078400     12.01000 ; qtot -0.329
   581   c3    19   UNL    C5  581    -0.078400     12.01000 ; qtot -0.407
   582   c3    19   UNL    C6  582    -0.078400     12.01000 ; qtot -0.486
   583   c3    19   UNL    C7  583    -0.078400     12.01000 ; qtot -0.564
   584   c3    19   UNL    C8  584    -0.078400     12.01000 ; qtot -0.642
   585   c3    19   UNL    C9  585    -0.079400     12.01000 ; qtot -0.722
   586   c3    19   UNL   C10  586    -0.092601     12.01000 ; qtot -0.814
   587   hc    19   UNL    H1  587     0.032367      1.00800 ; qtot -0.782
   588   hc    19   UNL    H2  588     0.032367      1.00800 ; qtot -0.750
   589   hc    19   UNL    H3  589     0.032367      1.00800 ; qtot -0.717
   590   hc    19   UNL    H4  590     0.037700      1.00800 ; qtot -0.680
   591   hc    19   UNL    H5  591     0.037700      1.00800 ; qtot -0.642
   592   hc    19   UNL    H6  592     0.038950      1.00800 ; qtot -0.603
   593   hc    19   UNL    H7  593     0.038950      1.00800 ; qtot -0.564
   594   hc    19   UNL    H8  594     0.039200      1.00800 ; qtot -0.525
   595   hc    19   UNL    H9  595     0.039200      1.00800 ; qtot -0.486
   596   hc    19   UNL   H10  596     0.039200      1.00800 ; qtot -0.446
   597   hc    19   UNL   H11  597     0.039200      1.00800 ; qtot -0.407
   598   hc    19   UNL   H12  598     0.039200      1.00800 ; qtot -0.368
   599   hc    19   UNL   H13  599     0.039200      1.00800 ; qtot -0.329
   600   hc    19   UNL   H14  600     0.039200      1.00800 ; qtot -0.290
   601   hc    19   UNL   H15  601     0.039200      1.00800 ; qtot -0.250
   602   hc    19   UNL   H16  602     0.038950      1.00800 ; qtot -0.211
   603   hc    19   UNL   H17  603     0.038950      1.00800 ; qtot -0.173
   604   hc    19   UNL   H18  604     0.037700      1.00800 ; qtot -0.135
   605   hc    19   UNL   H19  605     0.037700      1.00800 ; qtot -0.097
   606   hc    19   UNL   H20  606     0.032367      1.00800 ; qtot -0.065
   607   hc    19   UNL   H21  607     0.032367      1.00800 ; qtot -0.032
   608   hc    19   UNL   H22  608     0.032367      1.00800 ; qtot -0.000
   609   c3    20   UNL    C1  609    -0.092601     12.01000 ; qtot -0.093
   610   c3    20   UNL    C2  610    -0.079400     12.01000 ; qtot -0.172
   611   c3    20   UNL    C3  611    -0.078400     12.01000 ; qtot -0.250
   612   c3    20   UNL    C4  612    -0.078400     12.01000 ; qtot -0.329
   613   c3    20   UNL    C5  613    -0.078400     12.01000 ; qtot -0.407
   614   c3    20   UNL    C6  614    -0.078400     12.01000 ; qtot -0.486
   615   c3    20   UNL    C7  615    -0.078400     12.01000 ; qtot -0.564
   616   c3    20   UNL    C8  616    -0.078400     12.01000 ; qtot -0.642
   617   c3    20   UNL    C9  617    -0.079400     12.01000 ; qtot -0.722
   618   c3    20   UNL   C10  618    -0.092601     12.01000 ; qtot -0.814
   619   hc    20   UNL    H1  619     0.032367      1.00800 ; qtot -0.782
   620   hc    20   UNL    H2  620     0.032367      1.00800 ; qtot -0.750
   621   hc    20   UNL    H3  621     0.032367      1.00800 ; qtot -0.717
   622   hc    20   UNL    H4  622     0.037700      1.00800 ; qtot -0.680
   623   hc    20   UNL    H5  623     0.037700      1.00800 ; qtot -0.642
   624   hc    20   UNL    H6  624     0.038950      1.00800 ; qtot -0.603
   625   hc    20   UNL    H7  625     0.038950      1.00800 ; qtot -0.564
   626   hc    20   UNL    H8  626     0.039200      1.00800 ; qtot -0.525
   627   hc    20   UNL    H9  627     0.039200      1.00800 ; qtot -0.486
   628   hc    20   UNL   H10  628     0.039200      1.00800 ; qtot -0.446
   629   hc    20   UNL   H11  629     0.039200      1.00800 ; qtot -0.407
   630   hc    20   UNL   H12  630     0.039200      1.00800 ; qtot -0.368
   631   hc    20   UNL   H13  631     0.039200      1.00800 ; qtot -0.329
   632   hc    20   UNL   H14  632     0.039200      1.00800 ; qtot -0.290
   633   hc    20   UNL   H15  633     0.039200      1.00800 ; qtot -0.250
   634   hc    20   UNL   H16  634     0.038950      1.00800 ; qtot -0.211
   635   hc    20   UNL   H17  635     0.038950      1.00800 ; qtot -0.173
   636   hc    20   UNL   H18  636     0.037700      1.00800 ; qtot -0.135
   637   hc    20   UNL   H19  637     0.037700      1.00800 ; qtot -0.097
   638   hc    20   UNL   H20  638     0.032367      1.00800 ; qtot -0.065
   639   hc    20   UNL   H21  639     0.032367      1.00800 ; qtot -0.032
   640   hc    20   UNL   H22  640     0.032367      1.00800 ; qtot -0.000

[ bonds ]
;   ai     aj funct   r             k
     1      2   1    1.5354e-01    1.9154e+05 ;     C1 - C2    
     1     11   1    1.0962e-01    2.8891e+05 ;     C1 - H1    
     1     12   1    1.0962e-01    2.8891e+05 ;     C1 - H2    
     1     13   1    1.0962e-01    2.8891e+05 ;     C1 - H3    
     2      3   1    1.5354e-01    1.9154e+05 ;     C2 - C3    
     2     14   1    1.0962e-01    2.8891e+05 ;     C2 - H4    
     2     15   1    1.0962e-01    2.8891e+05 ;     C2 - H5    
     3      4   1    1.5354e-01    1.9154e+05 ;     C3 - C4    
     3     16   1    1.0962e-01    2.8891e+05 ;     C3 - H6    
     3     17   1    1.0962e-01    2.8891e+05 ;     C3 - H7    
     4      5   1    1.5354e-01    1.9154e+05 ;     C4 - C5    
     4     18   1    1.0962e-01    2.8891e+05 ;     C4 - H8    
     4     19   1    1.0962e-01    2.8891e+05 ;     C4 - H9    
     5      6   1    1.5354e-01    1.9154e+05 ;     C5 - C6    
     5     20   1    1.0962e-01    2.8891e+05 ;     C5 - H10   
     5     21   1    1.0962e-01    2.8891e+05 ;     C5 - H11   
     6      7   1    1.5354e-01    1.9154e+05 ;     C6 - C7    
     6     22   1    1.0962e-01    2.8891e+05 ;     C6 - H12   
     6     23   1    1.0962e-01    2.8891e+05 ;     C6 - H13   
     7      8   1    1.5354e-01    1.9154e+05 ;     C7 - C8    
     7     24   1    1.0962e-01    2.8891e+05 ;     C7 - H14   
     7     25   1    1.0962e-01    2.8891e+05 ;     C7 - H15   
     8      9   1    1.5354e-01    1.9154e+05 ;     C8 - C9    
     8     26   1    1.0962e-01    2.8891e+05 ;     C8 - H16   
     8     27   1    1.0962e-01    2.8891e+05 ;     C8 - H17   
     9     10   1    1.5354e-01    1.9154e+05 ;     C9 - C10   
     9     28   1    1.0962e-01    2.8891e+05 ;     C9 - H18   
     9     29   1    1.0962e-01    2.8891e+05 ;     C9 - H19   
    10     30   1    1.0962e-01    2.8891e+05 ;    C10 - H20   
    10     31   1    1.0962e-01    2.8891e+05 ;    C10 - H21   
    10     32   1    1.0962e-01    2.8891e+05 ;    C10 - H22   
    33     34   1    1.5354e-01    1.9154e+05 ;     C1 - C2    
    33     43   1    1.0962e-01    2.8891e+05 ;     C1 - H1    
    33     44   1    1.0962e-01    2.8891e+05 ;     C1 - H2    
    33     45   1    1.0962e-01    2.8891e+05 ;     C1 - H3    
    34     35   1    1.5354e-01    1.9154e+05 ;     C2 - C3    
    34     46   1    1.0962e-01    2.8891e+05 ;     C2 - H4    
    34     47   1    1.0962e-01    2.8891e+05 ;     C2 - H5    
    35     36   1    1.5354e-01    1.9154e+05 ;     C3 - C4    
    35     48   1    1.0962e-01    2.8891e+05 ;     C3 - H6    
    35     49   1    1.0962e-01    2.8891e+05 ;     C3 - H7    
    36     37   1    1.5354e-01    1.9154e+05 ;     C4 - C5    
    36     50   1    1.0962e-01    2.8891e+05 ;     C4 - H8    
    36     51   1    1.0962e-01    2.8891e+05 ;     C4 - H9    
    37     38   1    1.5354e-01    1.9154e+05 ;     C5 - C6    
    37     52   1    1.0962e-01    2.8891e+05 ;     C5 - H10   
    37     53   1    1.0962e-01    2.8891e+05 ;     C5 - H11   
    38     39   1    1.5354e-01    1.9154e+05 ;     C6 - C7    
    38     54   1    1.0962e-01    2.8891e+05 ;     C6 - H12   
    38     55   1    1.0962e-01    2.8891e+05 ;     C6 - H13   
    39     40   1    1.5354e-01    1.9154e+05 ;     C7 - C8    
    39     56   1    1.0962e-01    2.8891e+05 ;     C7 - H14   
    39     57   1    1.0962e-01    2.8891e+05 ;     C7 - H15   
    40     41   1    1.5354e-01    1.9154e+05 ;     C8 - C9    
    40     58   1    1.0962e-01    2.8891e+05 ;     C8 - H16   
    40     59   1    1.0962e-01    2.8891e+05 ;     C8 - H17   
    41     42   1    1.5354e-01    1.9154e+05 ;     C9 - C10   
    41     60   1    1.0962e-01    2.8891e+05 ;     C9 - H18   
    41     61   1    1.0962e-01    2.8891e+05 ;     C9 - H19   
    42     62   1    1.0962e-01    2.8891e+05 ;    C10 - H20   
    42     63   1    1.0962e-01    2.8891e+05 ;    C10 - H21   
    42     64   1    1.0962e-01    2.8891e+05 ;    C10 - H22   
    65     66   1    1.5354e-01    1.9154e+05 ;     C1 - C2    
    65     75   1    1.0962e-01    2.8891e+05 ;     C1 - H1    
    65     76   1    1.0962e-01    2.8891e+05 ;     C1 - H2    
    65     77   1    1.0962e-01    2.8891e+05 ;     C1 - H3    
    66     67   1    1.5354e-01    1.9154e+05 ;     C2 - C3    
    66     78   1    1.0962e-01    2.8891e+05 ;     C2 - H4    
    66     79   1    1.0962e-01    2.8891e+05 ;     C2 - H5    
    67     68   1    1.5354e-01    1.9154e+05 ;     C3 - C4    
    67     80   1    1.0962e-01    2.8891e+05 ;     C3 - H6    
    67     81   1    1.0962e-01    2.8891e+05 ;     C3 - H7    
    68     69   1    1.5354e-01    1.9154e+05 ;     C4 - C5    
    68     82   1    1.0962e-01    2.8891e+05 ;     C4 - H8    
    68     83   1    1.0962e-01    2.8891e+05 ;     C4 - H9    
    69     70   1    1.5354e-01    1.9154e+05 ;     C5 - C6    
    69     84   1    1.0962e-01    2.8891e+05 ;     C5 - H10   
    69     85   1    1.0962e-01    2.8891e+05 ;     C5 - H11   
    70     71   1    1.5354e-01    1.9154e+05 ;     C6 - C7    
    70     86   1    1.0962e-01    2.8891e+05 ;     C6 - H12   
    70     87   1    1.0962e-01    2.8891e+05 ;     C6 - H13   
    71     72   1    1.5354e-01    1.9154e+05 ;     C7 - C8    
    71     88   1    1.0962e-01    2.8891e+05 ;     C7 - H14   
    71     89   1    1.0962e-01    2.8891e+05 ;     C7 - H15   
    72     73   1    1.5354e-01    1.9154e+05 ;     C8 - C9    
    72     90   1    1.0962e-01    2.8891e+05 ;     C8 - H16   
    72     91   1    1.0962e-01    2.8891e+05 ;     C8 - H17   
    73     74   1    1.5354e-01    1.9154e+05 ;     C9 - C10   
    73     92   1    1.0962e-01    2.8891e+05 ;     C9 - H18   
    73     93   1    1.0962e-01    2.8891e+05 ;     C9 - H19   
    74     94   1    1.0962e-01    2.8891e+05 ;    C10 - H20   
    74     95   1    1.0962e-01    2.8891e+05 ;    C10 - H21   
    74     96   1    1.0962e-01    2.8891e+05 ;    C10 - H22   
    97     98   1    1.5354e-01    1.9154e+05 ;     C1 - C2    
    97    107   1    1.0962e-01    2.8891e+05 ;     C1 - H1    
    97    108   1    1.0962e-01    2.8891e+05 ;     C1 - H2    
    97    109   1    1.0962e-01    2.8891e+05 ;     C1 - H3    
    98     99   1    1.5354e-01    1.9154e+05 ;     C2 - C3    
    98    110   1    1.0962e-01    2.8891e+05 ;     C2 - H4    
    98    111   1    1.0962e-01    2.8891e+05 ;     C2 - H5    
    99    100   1    1.5354e-01    1.9154e+05 ;     C3 - C4    
    99    112   1    1.0962e-01    2.8891e+05 ;     C3 - H6    
    99    113   1    1.0962e-01    2.8891e+05 ;     C3 - H7    
   100    101   1    1.5354e-01    1.9154e+05 ;     C4 - C5    
   100    114   1    1.0962e-01    2.8891e+05 ;     C4 - H8    
   100    115   1    1.0962e-01    2.8891e+05 ;     C4 - H9    
   101    102   1    1.5354e-01    1.9154e+05 ;     C5 - C6    
   101    116   1    1.0962e-01    2.8891e+05 ;     C5 - H10   
   101    117   1    1.0962e-01    2.8891e+05 ;     C5 - H11   
   102    103   1    1.5354e-01    1.9154e+05 ;     C6 - C7    
   102    118   1    1.0962e-01    2.8891e+05 ;     C6 - H12   
   102    119   1    1.0962e-01    2.8891e+05 ;     C6 - H13   
   103    104   1    1.5354e-01    1.9154e+05 ;     C7 - C8    
   103    120   1    1.0962e-01    2.8891e+05 ;     C7 - H14   
   103    121   1    1.0962e-01    2.8891e+05 ;     C7 - H15   
   104    105   1    1.5354e-01    1.9154e+05 ;     C8 - C9    
   104    122   1    1.0962e-01    2.8891e+05 ;     C8 - H16   
   104    123   1    1.0962e-01    2.8891e+05 ;     C8 - H17   
   105    106   1    1.5354e-01    1.9154e+05 ;     C9 - C10   
   105    124   1    1.0962e-01    2.8891e+05 ;     C9 - H18   
   105    125   1    1.0962e-01    2.8891e+05 ;     C9 - H19   
   106    126   1    1.0962e-01    2.8891e+05 ;    C10 - H20   
   106    127   1    1.0962e-01    2.8891e+05 ;    C10 - H21   
   106    128   1    1.0962e-01    2.8891e+05 ;    C10 - H22   
   129    130   1    1.5354e-01    1.9154e+05 ;     C1 - C2    
   129    139   1    1.0962e-01    2.8891e+05 ;     C1 - H1    
   129    140   1    1.0962e-01    2.8891e+05 ;     C1 - H2    
   129    141   1    1.0962e-01    2.8891e+05 ;     C1 - H3    
   130    131   1    1.5354e-01    1.9154e+05 ;     C2 - C3    
   130    142   1    1.0962e-01    2.8891e+05 ;     C2 - H4    
   130    143   1    1.0962e-01    2.8891e+05 ;     C2 - H5    
   131    132   1    1.5354e-01    1.9154e+05 ;     C3 - C4    
   131    144   1    1.0962e-01    2.8891e+05 ;     C3 - H6    
   131    145   1    1.0962e-01    2.8891e+05 ;     C3 - H7    
   132    133   1    1.5354e-01    1.9154e+05 ;     C4 - C5    
   132    146   1    1.0962e-01    2.8891e+05 ;     C4 - H8    
   132    147   1    1.0962e-01    2.8891e+05 ;     C4 - H9    
   133    134   1    1.5354e-01    1.9154e+05 ;     C5 - C6    
   133    148   1    1.0962e-01    2.8891e+05 ;     C5 - H10   
   133    149   1    1.0962e-01    2.8891e+05 ;     C5 - H11   
   134    135   1    1.5354e-01    1.9154e+05 ;     C6 - C7    
   134    150   1    1.0962e-01    2.8891e+05 ;     C6 - H12   
   134    151   1    1.0962e-01    2.8891e+05 ;     C6 - H13   
   135    136   1    1.5354e-01    1.9154e+05 ;     C7 - C8    
   135    152   1    1.0962e-01    2.8891e+05 ;     C7 - H14   
   135    153   1    1.0962e-01    2.8891e+05 ;     C7 - H15   
   136    137   1    1.5354e-01    1.9154e+05 ;     C8 - C9    
   136    154   1    1.0962e-01    2.8891e+05 ;     C8 - H16   
   136    155   1    1.0962e-01    2.8891e+05 ;     C8 - H17   
   137    138   1    1.5354e-01    1.9154e+05 ;     C9 - C10   
   137    156   1    1.0962e-01    2.8891e+05 ;     C9 - H18   
   137    157   1    1.0962e-01    2.8891e+05 ;     C9 - H19   
   138    158   1    1.0962e-01    2.8891e+05 ;    C10 - H20   
   138    159   1    1.0962e-01    2.8891e+05 ;    C10 - H21   
   138    160   1    1.0962e-01    2.8891e+05 ;    C10 - H22   
   161    162   1    1.5354e-01    1.9154e+05 ;     C1 - C2    
   161    171   1    1.0962e-01    2.8891e+05 ;     C1 - H1    
   161    172   1    1.0962e-01    2.8891e+05 ;     C1 - H2    
   161    173   1    1.0962e-01    2.8891e+05 ;     C1 - H3    
   162    163   1    1.5354e-01    1.9154e+05 ;     C2 - C3    
   162    174   1    1.0962e-01    2.8891e+05 ;     C2 - H4    
   162    175   1    1.0962e-01    2.8891e+05 ;     C2 - H5    
   163    164   1    1.5354e-01    1.9154e+05 ;     C3 - C4    
   163    176   1    1.0962e-01    2.8891e+05 ;     C3 - H6    
   163    177   1    1.0962e-01    2.8891e+05 ;     C3 - H7    
   164    165   1    1.5354e-01    1.9154e+05 ;     C4 - C5    
   164    178   1    1.0962e-01    2.8891e+05 ;     C4 - H8    
   164    179   1    1.0962e-01    2.8891e+05 ;     C4 - H9    
   165    166   1    1.5354e-01    1.9154e+05 ;     C5 - C6    
   165    180   1    1.0962e-01    2.8891e+05 ;     C5 - H10   
   165    181   1    1.0962e-01    2.8891e+05 ;     C5 - H11   
   166    167   1    1.5354e-01    1.9154e+05 ;     C6 - C7    
   166    182   1    1.0962e-01    2.8891e+05 ;     C6 - H12   
   166    183   1    1.0962e-01    2.8891e+05 ;     C6 - H13   
   167    168   1    1.5354e-01    1.9154e+05 ;     C7 - C8    
   167    184   1    1.0962e-01    2.8891e+05 ;     C7 - H14   
   167    185   1    1.0962e-01    2.8891e+05 ;     C7 - H15   
   168    169   1    1.5354e-01    1.9154e+05 ;     C8 - C9    
   168    186   1    1.0962e-01    2.8891e+05 ;     C8 - H16   
   168    187   1    1.0962e-01    2.8891e+05 ;     C8 - H17   
   169    170   1    1.5354e-01    1.9154e+05 ;     C9 - C10   
   169    188   1    1.0962e-01    2.8891e+05 ;     C9 - H18   
   169    189   1    1.0962e-01    2.8891e+05 ;     C9 - H19   
   170    190   1    1.0962e-01    2.8891e+05 ;    C10 - H20   
   170    191   1    1.0962e-01    2.8891e+05 ;    C10 - H21   
   170    192   1    1.0962e-01    2.8891e+05 ;    C10 - H22   
   193    194   1    1.5354e-01    1.9154e+05 ;     C1 - C2    
   193    203   1    1.0962e-01    2.8891e+05 ;     C1 - H1    
   193    204   1    1.0962e-01    2.8891e+05 ;     C1 - H2    
   193    205   1    1.0962e-01    2.8891e+05 ;     C1 - H3    
   194    195   1    1.5354e-01    1.9154e+05 ;     C2 - C3    
   194    206   1    1.0962e-01    2.8891e+05 ;     C2 - H4    
   194    207   1    1.0962e-01    2.8891e+05 ;     C2 - H5    
   195    196   1    1.5354e-01    1.9154e+05 ;     C3 - C4    
   195    208   1    1.0962e-01    2.8891e+05 ;     C3 - H6    
   195    209   1    1.0962e-01    2.8891e+05 ;     C3 - H7    
   196    197   1    1.5354e-01    1.9154e+05 ;     C4 - C5    
   196    210   1    1.0962e-01    2.8891e+05 ;     C4 - H8    
   196    211   1    1.0962e-01    2.8891e+05 ;     C4 - H9    
   197    198   1    1.5354e-01    1.9154e+05 ;     C5 - C6    
   197    212   1    1.0962e-01    2.8891e+05 ;     C5 - H10   
   197    213   1    1.0962e-01    2.8891e+05 ;     C5 - H11   
   198    199   1    1.5354e-01    1.9154e+05 ;     C6 - C7    
   198    214   1    1.0962e-01    2.8891e+05 ;     C6 - H12   
   198    215   1    1.0962e-01    2.8891e+05 ;     C6 - H13   
   199    200   1    1.5354e-01    1.9154e+05 ;     C7 - C8    
   199    216   1    1.0962e-01    2.8891e+05 ;     C7 - H14   
   199    217   1    1.0962e-01    2.8891e+05 ;     C7 - H15   
   200    201   1    1.5354e-01    1.9154e+05 ;     C8 - C9    
   200    218   1    1.0962e-01    2.8891e+05 ;     C8 - H16   
   200    219   1    1.0962e-01    2.8891e+05 ;     C8 - H17   
   201    202   1    1.5354e-01    1.9154e+05 ;     C9 - C10   
   201    220   1    1.0962e-01    2.8891e+05 ;     C9 - H18   
   201    221   1    1.0962e-01    2.8891e+05 ;     C9 - H19   
   202    222   1    1.0962e-01    2.8891e+05 ;    C10 - H20   
   202    223   1    1.0962e-01    2.8891e+05 ;    C10 - H21   
   202    224   1    1.0962e-01    2.8891e+05 ;    C10 - H22   
   225    226   1    1.5354e-01    1.9154e+05 ;     C1 - C2    
   225    235   1    1.0962e-01    2.8891e+05 ;     C1 - H1    
   225    236   1    1.0962e-01    2.8891e+05 ;     C1 - H2    
   225    237   1    1.0962e-01    2.8891e+05 ;     C1 - H3    
   226    227   1    1.5354e-01    1.9154e+05 ;     C2 - C3    
   226    238   1    1.0962e-01    2.8891e+05 ;     C2 - H4    
   226    239   1    1.0962e-01    2.8891e+05 ;     C2 - H5    
   227    228   1    1.5354e-01    1.9154e+05 ;     C3 - C4    
   227    240   1    1.0962e-01    2.8891e+05 ;     C3 - H6    
   227    241   1    1.0962e-01    2.8891e+05 ;     C3 - H7    
   228    229   1    1.5354e-01    1.9154e+05 ;     C4 - C5    
   228    242   1    1.0962e-01    2.8891e+05 ;     C4 - H8    
   228    243   1    1.0962e-01    2.8891e+05 ;     C4 - H9    
   229    230   1    1.5354e-01    1.9154e+05 ;     C5 - C6    
   229    244   1    1.0962e-01    2.8891e+05 ;     C5 - H10   
   229    245   1    1.0962e-01    2.8891e+05 ;     C5 - H11   
   230    231   1    1.5354e-01    1.9154e+05 ;     C6 - C7    
   230    246   1    1.0962e-01    2.8891e+05 ;     C6 - H12   
   230    247   1    1.0962e-01    2.8891e+05 ;     C6 - H13   
   231    232   1    1.5354e-01    1.9154e+05 ;     C7 - C8    
   231    248   1    1.0962e-01    2.8891e+05 ;     C7 - H14   
   231    249   1    1.0962e-01    2.8891e+05 ;     C7 - H15   
   232    233   1    1.5354e-01    1.9154e+05 ;     C8 - C9    
   232    250   1    1.0962e-01    2.8891e+05 ;     C8 - H16   
   232    251   1    1.0962e-01    2.8891e+05 ;     C8 - H17   
   233    234   1    1.5354e-01    1.9154e+05 ;     C9 - C10   
   233    252   1    1.0962e-01    2.8891e+05 ;     C9 - H18   
   233    253   1    1.0962e-01    2.8891e+05 ;     C9 - H19   
   234    254   1    1.0962e-01    2.8891e+05 ;    C10 - H20   
   234    255   1    1.0962e-01    2.8891e+05 ;    C10 - H21   
   234    256   1    1.0962e-01    2.8891e+05 ;    C10 - H22   
   257    258   1    1.5354e-01    1.9154e+05 ;     C1 - C2    
   257    267   1    1.0962e-01    2.8891e+05 ;     C1 - H1    
   257    268   1    1.0962e-01    2.8891e+05 ;     C1 - H2    
   257    269   1    1.0962e-01    2.8891e+05 ;     C1 - H3    
   258    259   1    1.5354e-01    1.9154e+05 ;     C2 - C3    
   258    270   1    1.0962e-01    2.8891e+05 ;     C2 - H4    
   258    271   1    1.0962e-01    2.8891e+05 ;     C2 - H5    
   259    260   1    1.5354e-01    1.9154e+05 ;     C3 - C4    
   259    272   1    1.0962e-01    2.8891e+05 ;     C3 - H6    
   259    273   1    1.0962e-01    2.8891e+05 ;     C3 - H7    
   260    261   1    1.5354e-01    1.9154e+05 ;     C4 - C5    
   260    274   1    1.0962e-01    2.8891e+05 ;     C4 - H8    
   260    275   1    1.0962e-01    2.8891e+05 ;     C4 - H9    
   261    262   1    1.5354e-01    1.9154e+05 ;     C5 - C6    
   261    276   1    1.0962e-01    2.8891e+05 ;     C5 - H10   
   261    277   1    1.0962e-01    2.8891e+05 ;     C5 - H11   
   262    263   1    1.5354e-01    1.9154e+05 ;     C6 - C7    
   262    278   1    1.0962e-01    2.8891e+05 ;     C6 - H12   
   262    279   1    1.0962e-01    2.8891e+05 ;     C6 - H13   
   263    264   1    1.5354e-01    1.9154e+05 ;     C7 - C8    
   263    280   1    1.0962e-01    2.8891e+05 ;     C7 - H14   
   263    281   1    1.0962e-01    2.8891e+05 ;     C7 - H15   
   264    265   1    1.5354e-01    1.9154e+05 ;     C8 - C9    
   264    282   1    1.0962e-01    2.8891e+05 ;     C8 - H16   
   264    283   1    1.0962e-01    2.8891e+05 ;     C8 - H17   
   265    266   1    1.5354e-01    1.9154e+05 ;     C9 - C10   
   265    284   1    1.0962e-01    2.8891e+05 ;     C9 - H18   
   265    285   1    1.0962e-01    2.8891e+05 ;     C9 - H19   
   266    286   1    1.0962e-01    2.8891e+05 ;    C10 - H20   
   266    287   1    1.0962e-01    2.8891e+05 ;    C10 - H21   
   266    288   1    1.0962e-01    2.8891e+05 ;    C10 - H22   
   289    290   1    1.5354e-01    1.9154e+05 ;     C1 - C2    
   289    299   1    1.0962e-01    2.8891e+05 ;     C1 - H1    
   289    300   1    1.0962e-01    2.8891e+05 ;     C1 - H2    
   289    301   1    1.0962e-01    2.8891e+05 ;     C1 - H3    
   290    291   1    1.5354e-01    1.9154e+05 ;     C2 - C3    
   290    302   1    1.0962e-01    2.8891e+05 ;     C2 - H4    
   290    303   1    1.0962e-01    2.8891e+05 ;     C2 - H5    
   291    292   1    1.5354e-01    1.9154e+05 ;     C3 - C4    
   291    304   1    1.0962e-01    2.8891e+05 ;     C3 - H6    
   291    305   1    1.0962e-01    2.8891e+05 ;     C3 - H7    
   292    293   1    1.5354e-01    1.9154e+05 ;     C4 - C5    
   292    306   1    1.0962e-01    2.8891e+05 ;     C4 - H8    
   292    307   1    1.0962e-01    2.8891e+05 ;     C4 - H9    
   293    294   1    1.5354e-01    1.9154e+05 ;     C5 - C6    
   293    308   1    1.0962e-01    2.8891e+05 ;     C5 - H10   
   293    309   1    1.0962e-01    2.8891e+05 ;     C5 - H11   
   294    295   1    1.5354e-01    1.9154e+05 ;     C6 - C7    
   294    310   1    1.0962e-01    2.8891e+05 ;     C6 - H12   
   294    311   1    1.0962e-01    2.8891e+05 ;     C6 - H13   
   295    296   1    1.5354e-01    1.9154e+05 ;     C7 - C8    
   295    312   1    1.0962e-01    2.8891e+05 ;     C7 - H14   
   295    313   1    1.0962e-01    2.8891e+05 ;     C7 - H15   
   296    297   1    1.5354e-01    1.9154e+05 ;     C8 - C9    
   296    314   1    1.0962e-01    2.8891e+05 ;     C8 - H16   
   296    315   1    1.0962e-01    2.8891e+05 ;     C8 - H17   
   297    298   1    1.5354e-01    1.9154e+05 ;     C9 - C10   
   297    316   1    1.0962e-01    2.8891e+05 ;     C9 - H18   
   297    317   1    1.0962e-01    2.8891e+05 ;     C9 - H19   
   298    318   1    1.0962e-01    2.8891e+05 ;    C10 - H20   
   298    319   1    1.0962e-01    2.8891e+05 ;    C10 - H21   
   298    320   1    1.0962e-01    2.8891e+05 ;    C10 - H22   
   321    322   1    1.5354e-01    1.9154e+05 ;     C1 - C2    
   321    331   1    1.0962e-01    2.8891e+05 ;     C1 - H1    
   321    332   1    1.0962e-01    2.8891e+05 ;     C1 - H2    
   321    333   1    1.0962e-01    2.8891e+05 ;     C1 - H3    
   322    323   1    1.5354e-01    1.9154e+05 ;     C2 - C3    
   322    334   1    1.0962e-01    2.8891e+05 ;     C2 - H4    
   322    335   1    1.0962e-01    2.8891e+05 ;     C2 - H5    
   323    324   1    1.5354e-01    1.9154e+05 ;     C3 - C4    
   323    336   1    1.0962e-01    2.8891e+05 ;     C3 - H6    
   323    337   1    1.0962e-01    2.8891e+05 ;     C3 - H7    
   324    325   1    1.5354e-01    1.9154e+05 ;     C4 - C5    
   324    338   1    1.0962e-01    2.8891e+05 ;     C4 - H8    
   324    339   1    1.0962e-01    2.8891e+05 ;     C4 - H9    
   325    326   1    1.5354e-01    1.9154e+05 ;     C5 - C6    
   325    340   1    1.0962e-01    2.8891e+05 ;     C5 - H10   
   325    341   1    1.0962e-01    2.8891e+05 ;     C5 - H11   
   326    327   1    1.5354e-01    1.9154e+05 ;     C6 - C7    
   326    342   1    1.0962e-01    2.8891e+05 ;     C6 - H12   
   326    343   1    1.0962e-01    2.8891e+05 ;     C6 - H13   
   327    328   1    1.5354e-01    1.9154e+05 ;     C7 - C8    
   327    344   1    1.0962e-01    2.8891e+05 ;     C7 - H14   
   327    345   1    1.0962e-01    2.8891e+05 ;     C7 - H15   
   328    329   1    1.5354e-01    1.9154e+05 ;     C8 - C9    
   328    346   1    1.0962e-01    2.8891e+05 ;     C8 - H16   
   328    347   1    1.0962e-01    2.8891e+05 ;     C8 - H17   
   329    330   1    1.5354e-01    1.9154e+05 ;     C9 - C10   
   329    348   1    1.0962e-01    2.8891e+05 ;     C9 - H18   
   329    349   1    1.0962e-01    2.8891e+05 ;     C9 - H19   
   330    350   1    1.0962e-01    2.8891e+05 ;    C10 - H20   
   330    351   1    1.0962e-01    2.8891e+05 ;    C10 - H21   
   330    352   1    1.0962e-01    2.8891e+05 ;    C10 - H22   
   353    354   1    1.5354e-01    1.9154e+05 ;     C1 - C2    
   353    363   1    1.0962e-01    2.8891e+05 ;     C1 - H1    
   353    364   1    1.0962e-01    2.8891e+05 ;     C1 - H2    
   353    365   1    1.0962e-01    2.8891e+05 ;     C1 - H3    
   354    355   1    1.5354e-01    1.9154e+05 ;     C2 - C3    
   354    366   1    1.0962e-01    2.8891e+05 ;     C2 - H4    
   354    367   1    1.0962e-01    2.8891e+05 ;     C2 - H5    
   355    356   1    1.5354e-01    1.9154e+05 ;     C3 - C4    
   355    368   1    1.0962e-01    2.8891e+05 ;     C3 - H6    
   355    369   1    1.0962e-01    2.8891e+05 ;     C3 - H7    
   356    357   1    1.5354e-01    1.9154e+05 ;     C4 - C5    
   356    370   1    1.0962e-01    2.8891e+05 ;     C4 - H8    
   356    371   1    1.0962e-01    2.8891e+05 ;     C4 - H9    
   357    358   1    1.5354e-01    1.9154e+05 ;     C5 - C6    
   357    372   1    1.0962e-01    2.8891e+05 ;     C5 - H10   
   357    373   1    1.0962e-01    2.8891e+05 ;     C5 - H11   
   358    359   1    1.5354e-01    1.9154e+05 ;     C6 - C7    
   358    374   1    1.0962e-01    2.8891e+05 ;     C6 - H12   
   358    375   1    1.0962e-01    2.8891e+05 ;     C6 - H13   
   359    360   1    1.5354e-01    1.9154e+05 ;     C7 - C8    
   359    376   1    1.0962e-01    2.8891e+05 ;     C7 - H14   
   359    377   1    1.0962e-01    2.8891e+05 ;     C7 - H15   
   360    361   1    1.5354e-01    1.9154e+05 ;     C8 - C9    
   360    378   1    1.0962e-01    2.8891e+05 ;     C8 - H16   
   360    379   1    1.0962e-01    2.8891e+05 ;     C8 - H17   
   361    362   1    1.5354e-01    1.9154e+05 ;     C9 - C10   
   361    380   1    1.0962e-01    2.8891e+05 ;     C9 - H18   
   361    381   1    1.0962e-01    2.8891e+05 ;     C9 - H19   
   362    382   1    1.0962e-01    2.8891e+05 ;    C10 - H20   
   362    383   1    1.0962e-01    2.8891e+05 ;    C10 - H21   
   362    384   1    1.0962e-01    2.8891e+05 ;    C10 - H22   
   385    386   1    1.5354e-01    1.9154e+05 ;     C1 - C2    
   385    395   1    1.0962e-01    2.8891e+05 ;     C1 - H1    
   385    396   1    1.0962e-01    2.8891e+05 ;     C1 - H2    
   385    397   1    1.0962e-01    2.8891e+05 ;     C1 - H3    
   386    387   1    1.5354e-01    1.9154e+05 ;     C2 - C3    
   386    398   1    1.0962e-01    2.8891e+05 ;     C2 - H4    
   386    399   1    1.0962e-01    2.8891e+05 ;     C2 - H5    
   387    388   1    1.5354e-01    1.9154e+05 ;     C3 - C4    
   387    400   1    1.0962e-01    2.8891e+05 ;     C3 - H6    
   387    401   1    1.0962e-01    2.8891e+05 ;     C3 - H7    
   388    389   1    1.5354e-01    1.9154e+05 ;     C4 - C5    
   388    402   1    1.0962e-01    2.8891e+05 ;     C4 - H8    
   388    403   1    1.0962e-01    2.8891e+05 ;     C4 - H9    
   389    390   1    1.5354e-01    1.9154e+05 ;     C5 - C6    
   389    404   1    1.0962e-01    2.8891e+05 ;     C5 - H10   
   389    405   1    1.0962e-01    2.8891e+05 ;     C5 - H11   
   390    391   1    1.5354e-01    1.9154e+05 ;     C6 - C7    
   390    406   1    1.0962e-01    2.8891e+05 ;     C6 - H12   
   390    407   1    1.0962e-01    2.8891e+05 ;     C6 - H13   
   391    392   1    1.5354e-01    1.9154e+05 ;     C7 - C8    
   391    408   1    1.0962e-01    2.8891e+05 ;     C7 - H14   
   391    409   1    1.0962e-01    2.8891e+05 ;     C7 - H15   
   392    393   1    1.5354e-01    1.9154e+05 ;     C8 - C9    
   392    410   1    1.0962e-01    2.8891e+05 ;     C8 - H16   
   392    411   1    1.0962e-01    2.8891e+05 ;     C8 - H17   
   393    394   1    1.5354e-01    1.9154e+05 ;     C9 - C10   
   393    412   1    1.0962e-01    2.8891e+05 ;     C9 - H18   
   393    413   1    1.0962e-01    2.8891e+05 ;     C9 - H19   
   394    414   1    1.0962e-01    2.8891e+05 ;    C10 - H20   
   394    415   1    1.0962e-01    2.8891e+05 ;    C10 - H21   
   394    416   1    1.0962e-01    2.8891e+05 ;    C10 - H22   
   417    418   1    1.5354e-01    1.9154e+05 ;     C1 - C2    
   417    427   1    1.0962e-01    2.8891e+05 ;     C1 - H1    
   417    428   1    1.0962e-01    2.8891e+05 ;     C1 - H2    
   417    429   1    1.0962e-01    2.8891e+05 ;     C1 - H3    
   418    419   1    1.5354e-01    1.9154e+05 ;     C2 - C3    
   418    430   1    1.0962e-01    2.8891e+05 ;     C2 - H4    
   418    431   1    1.0962e-01    2.8891e+05 ;     C2 - H5    
   419    420   1    1.5354e-01    1.9154e+05 ;     C3 - C4    
   419    432   1    1.0962e-01    2.8891e+05 ;     C3 - H6    
   419    433   1    1.0962e-01    2.8891e+05 ;     C3 - H7    
   420    421   1    1.5354e-01    1.9154e+05 ;     C4 - C5    
   420    434   1    1.0962e-01    2.8891e+05 ;     C4 - H8    
   420    435   1    1.0962e-01    2.8891e+05 ;     C4 - H9    
   421    422   1    1.5354e-01    1.9154e+05 ;     C5 - C6    
   421    436   1    1.0962e-01    2.8891e+05 ;     C5 - H10   
   421    437   1    1.0962e-01    2.8891e+05 ;     C5 - H11   
   422    423   1    1.5354e-01    1.9154e+05 ;     C6 - C7    
   422    438   1    1.0962e-01    2.8891e+05 ;     C6 - H12   
   422    439   1    1.0962e-01    2.8891e+05 ;     C6 - H13   
   423    424   1    1.5354e-01    1.9154e+05 ;     C7 - C8    
   423    440   1    1.0962e-01    2.8891e+05 ;     C7 - H14   
   423    441   1    1.0962e-01    2.8891e+05 ;     C7 - H15   
   424    425   1    1.5354e-01    1.9154e+05 ;     C8 - C9    
   424    442   1    1.0962e-01    2.8891e+05 ;     C8 - H16   
   424    443   1    1.0962e-01    2.8891e+05 ;     C8 - H17   
   425    426   1    1.5354e-01    1.9154e+05 ;     C9 - C10   
   425    444   1    1.0962e-01    2.8891e+05 ;     C9 - H18   
   425    445   1    1.0962e-01    2.8891e+05 ;     C9 - H19   
   426    446   1    1.0962e-01    2.8891e+05 ;    C10 - H20   
   426    447   1    1.0962e-01    2.8891e+05 ;    C10 - H21   
   426    448   1    1.0962e-01    2.8891e+05 ;    C10 - H22   
   449    450   1    1.5354e-01    1.9154e+05 ;     C1 - C2    
   449    459   1    1.0962e-01    2.8891e+05 ;     C1 - H1    
   449    460   1    1.0962e-01    2.8891e+05 ;     C1 - H2    
   449    461   1    1.0962e-01    2.8891e+05 ;     C1 - H3    
   450    451   1    1.5354e-01    1.9154e+05 ;     C2 - C3    
   450    462   1    1.0962e-01    2.8891e+05 ;     C2 - H4    
   450    463   1    1.0962e-01    2.8891e+05 ;     C2 - H5    
   451    452   1    1.5354e-01    1.9154e+05 ;     C3 - C4    
   451    464   1    1.0962e-01    2.8891e+05 ;     C3 - H6    
   451    465   1    1.0962e-01    2.8891e+05 ;     C3 - H7    
   452    453   1    1.5354e-01    1.9154e+05 ;     C4 - C5    
   452    466   1    1.0962e-01    2.8891e+05 ;     C4 - H8    
   452    467   1    1.0962e-01    2.8891e+05 ;     C4 - H9    
   453    454   1    1.5354e-01    1.9154e+05 ;     C5 - C6    
   453    468   1    1.0962e-01    2.8891e+05 ;     C5 - H10   
   453    469   1    1.0962e-01    2.8891e+05 ;     C5 - H11   
   454    455   1    1.5354e-01    1.9154e+05 ;     C6 - C7    
   454    470   1    1.0962e-01    2.8891e+05 ;     C6 - H12   
   454    471   1    1.0962e-01    2.8891e+05 ;     C6 - H13   
   455    456   1    1.5354e-01    1.9154e+05 ;     C7 - C8    
   455    472   1    1.0962e-01    2.8891e+05 ;     C7 - H14   
   455    473   1    1.0962e-01    2.8891e+05 ;     C7 - H15   
   456    457   1    1.5354e-01    1.9154e+05 ;     C8 - C9    
   456    474   1    1.0962e-01    2.8891e+05 ;     C8 - H16   
   456    475   1    1.0962e-01    2.8891e+05 ;     C8 - H17   
   457    458   1    1.5354e-01    1.9154e+05 ;     C9 - C10   
   457    476   1    1.0962e-01    2.8891e+05 ;     C9 - H18   
   457    477   1    1.0962e-01    2.8891e+05 ;     C9 - H19   
   458    478   1    1.0962e-01    2.8891e+05 ;    C10 - H20   
   458    479   1    1.0962e-01    2.8891e+05 ;    C10 - H21   
   458    480   1    1.0962e-01    2.8891e+05 ;    C10 - H22   
   481    482   1    1.5354e-01    1.9154e+05 ;     C1 - C2    
   481    491   1    1.0962e-01    2.8891e+05 ;     C1 - H1    
   481    492   1    1.0962e-01    2.8891e+05 ;     C1 - H2    
   481    493   1    1.0962e-01    2.8891e+05 ;     C1 - H3    
   482    483   1    1.5354e-01    1.9154e+05 ;     C2 - C3    
   482    494   1    1.0962e-01    2.8891e+05 ;     C2 - H4    
   482    495   1    1.0962e-01    2.8891e+05 ;     C2 - H5    
   483    484   1    1.5354e-01    1.9154e+05 ;     C3 - C4    
   483    496   1    1.0962e-01    2.8891e+05 ;     C3 - H6    
   483    497   1    1.0962e-01    2.8891e+05 ;     C3 - H7    
   484    485   1    1.5354e-01    1.9154e+05 ;     C4 - C5    
   484    498   1    1.0962e-01    2.8891e+05 ;     C4 - H8    
   484    499   1    1.0962e-01    2.8891e+05 ;     C4 - H9    
   485    486   1    1.5354e-01    1.9154e+05 ;     C5 - C6    
   485    500   1    1.0962e-01    2.8891e+05 ;     C5 - H10   
   485    501   1    1.0962e-01    2.8891e+05 ;     C5 - H11   
   486    487   1    1.5354e-01    1.9154e+05 ;     C6 - C7    
   486    502   1    1.0962e-01    2.8891e+05 ;     C6 - H12   
   486    503   1    1.0962e-01    2.8891e+05 ;     C6 - H13   
   487    488   1    1.5354e-01    1.9154e+05 ;     C7 - C8    
   487    504   1    1.0962e-01    2.8891e+05 ;     C7 - H14   
   487    505   1    1.0962e-01    2.8891e+05 ;     C7 - H15   
   488    489   1    1.5354e-01    1.9154e+05 ;     C8 - C9    
   488    506   1    1.0962e-01    2.8891e+05 ;     C8 - H16   
   488    507   1    1.0962e-01    2.8891e+05 ;     C8 - H17   
   489    490   1    1.5354e-01    1.9154e+05 ;     C9 - C10   
   489    508   1    1.0962e-01    2.8891e+05 ;     C9 - H18   
   489    509   1    1.0962e-01    2.8891e+05 ;     C9 - H19   
   490    510   1    1.0962e-01    2.8891e+05 ;    C10 - H20   
   490    511   1    1.0962e-01    2.8891e+05 ;    C10 - H21   
   490    512   1    1.0962e-01    2.8891e+05 ;    C10 - H22   
   513    514   1    1.5354e-01    1.9154e+05 ;     C1 - C2    
   513    523   1    1.0962e-01    2.8891e+05 ;     C1 - H1    
   513    524   1    1.0962e-01    2.8891e+05 ;     C1 - H2    
   513    525   1    1.0962e-01    2.8891e+05 ;     C1 - H3    
   514    515   1    1.5354e-01    1.9154e+05 ;     C2 - C3    
   514    526   1    1.0962e-01    2.8891e+05 ;     C2 - H4    
   514    527   1    1.0962e-01    2.8891e+05 ;     C2 - H5    
   515    516   1    1.5354e-01    1.9154e+05 ;     C3 - C4    
   515    528   1    1.0962e-01    2.8891e+05 ;     C3 - H6    
   515    529   1    1.0962e-01    2.8891e+05 ;     C3 - H7    
   516    517   1    1.5354e-01    1.9154e+05 ;     C4 - C5    
   516    530   1    1.0962e-01    2.8891e+05 ;     C4 - H8    
   516    531   1    1.0962e-01    2.8891e+05 ;     C4 - H9    
   517    518   1    1.5354e-01    1.9154e+05 ;     C5 - C6    
   517    532   1    1.0962e-01    2.8891e+05 ;     C5 - H10   
   517    533   1    1.0962e-01    2.8891e+05 ;     C5 - H11   
   518    519   1    1.5354e-01    1.9154e+05 ;     C6 - C7    
   518    534   1    1.0962e-01    2.8891e+05 ;     C6 - H12   
   518    535   1    1.0962e-01    2.8891e+05 ;     C6 - H13   
   519    520   1    1.5354e-01    1.9154e+05 ;     C7 - C8    
   519    536   1    1.0962e-01    2.8891e+05 ;     C7 - H14   
   519    537   1    1.0962e-01    2.8891e+05 ;     C7 - H15   
   520    521   1    1.5354e-01    1.9154e+05 ;     C8 - C9    
   520    538   1    1.0962e-01    2.8891e+05 ;     C8 - H16   
   520    539   1    1.0962e-01    2.8891e+05 ;     C8 - H17   
   521    522   1    1.5354e-01    1.9154e+05 ;     C9 - C10   
   521    540   1    1.0962e-01    2.8891e+05 ;     C9 - H18   
   521    541   1    1.0962e-01    2.8891e+05 ;     C9 - H19   
   522    542   1    1.0962e-01    2.8891e+05 ;    C10 - H20   
   522    543   1    1.0962e-01    2.8891e+05 ;    C10 - H21   
   522    544   1    1.0962e-01    2.8891e+05 ;    C10 - H22   
   545    546   1    1.5354e-01    1.9154e+05 ;     C1 - C2    
   545    555   1    1.0962e-01    2.8891e+05 ;     C1 - H1    
   545    556   1    1.0962e-01    2.8891e+05 ;     C1 - H2    
   545    557   1    1.0962e-01    2.8891e+05 ;     C1 - H3    
   546    547   1    1.5354e-01    1.9154e+05 ;     C2 - C3    
   546    558   1    1.0962e-01    2.8891e+05 ;     C2 - H4    
   546    559   1    1.0962e-01    2.8891e+05 ;     C2 - H5    
   547    548   1    1.5354e-01    1.9154e+05 ;     C3 - C4    
   547    560   1    1.0962e-01    2.8891e+05 ;     C3 - H6    
   547    561   1    1.0962e-01    2.8891e+05 ;     C3 - H7    
   548    549   1    1.5354e-01    1.9154e+05 ;     C4 - C5    
   548    562   1    1.0962e-01    2.8891e+05 ;     C4 - H8    
   548    563   1    1.0962e-01    2.8891e+05 ;     C4 - H9    
   549    550   1    1.5354e-01    1.9154e+05 ;     C5 - C6    
   549    564   1    1.0962e-01    2.8891e+05 ;     C5 - H10   
   549    565   1    1.0962e-01    2.8891e+05 ;     C5 - H11   
   550    551   1    1.5354e-01    1.9154e+05 ;     C6 - C7    
   550    566   1    1.0962e-01    2.8891e+05 ;     C6 - H12   
   550    567   1    1.0962e-01    2.8891e+05 ;     C6 - H13   
   551    552   1    1.5354e-01    1.9154e+05 ;     C7 - C8    
   551    568   1    1.0962e-01    2.8891e+05 ;     C7 - H14   
   551    569   1    1.0962e-01    2.8891e+05 ;     C7 - H15   
   552    553   1    1.5354e-01    1.9154e+05 ;     C8 - C9    
   552    570   1    1.0962e-01    2.8891e+05 ;     C8 - H16   
   552    571   1    1.0962e-01    2.8891e+05 ;     C8 - H17   
   553    554   1    1.5354e-01    1.9154e+05 ;     C9 - C10   
   553    572   1    1.0962e-01    2.8891e+05 ;     C9 - H18   
   553    573   1    1.0962e-01    2.8891e+05 ;     C9 - H19   
   554    574   1    1.0962e-01    2.8891e+05 ;    C10 - H20   
   554    575   1    1.0962e-01    2.8891e+05 ;    C10 - H21   
   554    576   1    1.0962e-01    2.8891e+05 ;    C10 - H22   
   577    578   1    1.5354e-01    1.9154e+05 ;     C1 - C2    
   577    587   1    1.0962e-01    2.8891e+05 ;     C1 - H1    
   577    588   1    1.0962e-01    2.8891e+05 ;     C1 - H2    
   577    589   1    1.0962e-01    2.8891e+05 ;     C1 - H3    
   578    579   1    1.5354e-01    1.9154e+05 ;     C2 - C3    
   578    590   1    1.0962e-01    2.8891e+05 ;     C2 - H4    
   578    591   1    1.0962e-01    2.8891e+05 ;     C2 - H5    
   579    580   1    1.5354e-01    1.9154e+05 ;     C3 - C4    
   579    592   1    1.0962e-01    2.8891e+05 ;     C3 - H6    
   579    593   1    1.0962e-01    2.8891e+05 ;     C3 - H7    
   580    581   1    1.5354e-01    1.9154e+05 ;     C4 - C5    
   580    594   1    1.0962e-01    2.8891e+05 ;     C4 - H8    
   580    595   1    1.0962e-01    2.8891e+05 ;     C4 - H9    
   581    582   1    1.5354e-01    1.9154e+05 ;     C5 - C6    
   581    596   1    1.0962e-01    2.8891e+05 ;     C5 - H10   
   581    597   1    1.0962e-01    2.8891e+05 ;     C5 - H11   
   582    583   1    1.5354e-01    1.9154e+05 ;     C6 - C7    
   582    598   1    1.0962e-01    2.8891e+05 ;     C6 - H12   
   582    599   1    1.0962e-01    2.8891e+05 ;     C6 - H13   
   583    584   1    1.5354e-01    1.9154e+05 ;     C7 - C8    
   583    600   1    1.0962e-01    2.8891e+05 ;     C7 - H14   
   583    601   1    1.0962e-01    2.8891e+05 ;     C7 - H15   
   584    585   1    1.5354e-01    1.9154e+05 ;     C8 - C9    
   584    602   1    1.0962e-01    2.8891e+05 ;     C8 - H16   
   584    603   1    1.0962e-01    2.8891e+05 ;     C8 - H17   
   585    586   1    1.5354e-01    1.9154e+05 ;     C9 - C10   
   585    604   1    1.0962e-01    2.8891e+05 ;     C9 - H18   
   585    605   1    1.0962e-01    2.8891e+05 ;     C9 - H19   
   586    606   1    1.0962e-01    2.8891e+05 ;    C10 - H20   
   586    607   1    1.0962e-01    2.8891e+05 ;    C10 - H21   
   586    608   1    1.0962e-01    2.8891e+05 ;    C10 - H22   
   609    610   1    1.5354e-01    1.9154e+05 ;     C1 - C2    
   609    619   1    1.0962e-01    2.8891e+05 ;     C1 - H1    
   609    620   1    1.0962e-01    2.8891e+05 ;     C1 - H2    
   609    621   1    1.0962e-01    2.8891e+05 ;     C1 - H3    
   610    611   1    1.5354e-01    1.9154e+05 ;     C2 - C3    
   610    622   1    1.0962e-01    2.8891e+05 ;     C2 - H4    
   610    623   1    1.0962e-01    2.8891e+05 ;     C2 - H5    
   611    612   1    1.5354e-01    1.9154e+05 ;     C3 - C4    
   611    624   1    1.0962e-01    2.8891e+05 ;     C3 - H6    
   611    625   1    1.0962e-01    2.8891e+05 ;     C3 - H7    
   612    613   1    1.5354e-01    1.9154e+05 ;     C4 - C5    
   612    626   1    1.0962e-01    2.8891e+05 ;     C4 - H8    
   612    627   1    1.0962e-01    2.8891e+05 ;     C4 - H9    
   613    614   1    1.5354e-01    1.9154e+05 ;     C5 - C6    
   613    628   1    1.0962e-01    2.8891e+05 ;     C5 - H10   
   613    629   1    1.0962e-01    2.8891e+05 ;     C5 - H11   
   614    615   1    1.5354e-01    1.9154e+05 ;     C6 - C7    
   614    630   1    1.0962e-01    2.8891e+05 ;     C6 - H12   
   614    631   1    1.0962e-01    2.8891e+05 ;     C6 - H13   
   615    616   1    1.5354e-01    1.9154e+05 ;     C7 - C8    
   615    632   1    1.0962e-01    2.8891e+05 ;     C7 - H14   
   615    633   1    1.0962e-01    2.8891e+05 ;     C7 - H15   
   616    617   1    1.5354e-01    1.9154e+05 ;     C8 - C9    
   616    634   1    1.0962e-01    2.8891e+05 ;     C8 - H16   
   616    635   1    1.0962e-01    2.8891e+05 ;     C8 - H17   
   617    618   1    1.5354e-01    1.9154e+05 ;     C9 - C10   
   617    636   1    1.0962e-01    2.8891e+05 ;     C9 - H18   
   617    637   1    1.0962e-01    2.8891e+05 ;     C9 - H19   
   618    638   1    1.0962e-01    2.8891e+05 ;    C10 - H20   
   618    639   1    1.0962e-01    2.8891e+05 ;    C10 - H21   
   618    640   1    1.0962e-01    2.8891e+05 ;    C10 - H22   

[ pairs ]
;   ai     aj    funct
     1      4      1 ;     C1 - C4    
     1     16      1 ;     C1 - H6    
     1     17      1 ;     C1 - H7    
     2      5      1 ;     C2 - C5    
     2     18      1 ;     C2 - H8    
     2     19      1 ;     C2 - H9    
     3      6      1 ;     C3 - C6    
     3     20      1 ;     C3 - H10   
     3     21      1 ;     C3 - H11   
     4      7      1 ;     C4 - C7    
     4     14      1 ;     C4 - H4    
     4     15      1 ;     C4 - H5    
     4     22      1 ;     C4 - H12   
     4     23      1 ;     C4 - H13   
     5      8      1 ;     C5 - C8    
     5     16      1 ;     C5 - H6    
     5     17      1 ;     C5 - H7    
     5     24      1 ;     C5 - H14   
     5     25      1 ;     C5 - H15   
     6      9      1 ;     C6 - C9    
     6     18      1 ;     C6 - H8    
     6     19      1 ;     C6 - H9    
     6     26      1 ;     C6 - H16   
     6     27      1 ;     C6 - H17   
     7     10      1 ;     C7 - C10   
     7     20      1 ;     C7 - H10   
     7     21      1 ;     C7 - H11   
     7     28      1 ;     C7 - H18   
     7     29      1 ;     C7 - H19   
     8     22      1 ;     C8 - H12   
     8     23      1 ;     C8 - H13   
     8     30      1 ;     C8 - H20   
     8     31      1 ;     C8 - H21   
     8     32      1 ;     C8 - H22   
     9     24      1 ;     C9 - H14   
     9     25      1 ;     C9 - H15   
    10     26      1 ;    C10 - H16   
    10     27      1 ;    C10 - H17   
    11      3      1 ;     H1 - C3    
    11     14      1 ;     H1 - H4    
    11     15      1 ;     H1 - H5    
    12      3      1 ;     H2 - C3    
    12     14      1 ;     H2 - H4    
    12     15      1 ;     H2 - H5    
    13      3      1 ;     H3 - C3    
    13     14      1 ;     H3 - H4    
    13     15      1 ;     H3 - H5    
    14     16      1 ;     H4 - H6    
    14     17      1 ;     H4 - H7    
    15     16      1 ;     H5 - H6    
    15     17      1 ;     H5 - H7    
    16     18      1 ;     H6 - H8    
    16     19      1 ;     H6 - H9    
    17     18      1 ;     H7 - H8    
    17     19      1 ;     H7 - H9    
    18     20      1 ;     H8 - H10   
    18     21      1 ;     H8 - H11   
    19     20      1 ;     H9 - H10   
    19     21      1 ;     H9 - H11   
    20     22      1 ;    H10 - H12   
    20     23      1 ;    H10 - H13   
    21     22      1 ;    H11 - H12   
    21     23      1 ;    H11 - H13   
    22     24      1 ;    H12 - H14   
    22     25      1 ;    H12 - H15   
    23     24      1 ;    H13 - H14   
    23     25      1 ;    H13 - H15   
    24     26      1 ;    H14 - H16   
    24     27      1 ;    H14 - H17   
    25     26      1 ;    H15 - H16   
    25     27      1 ;    H15 - H17   
    26     28      1 ;    H16 - H18   
    26     29      1 ;    H16 - H19   
    27     28      1 ;    H17 - H18   
    27     29      1 ;    H17 - H19   
    28     30      1 ;    H18 - H20   
    28     31      1 ;    H18 - H21   
    28     32      1 ;    H18 - H22   
    29     30      1 ;    H19 - H20   
    29     31      1 ;    H19 - H21   
    29     32      1 ;    H19 - H22   
    33     36      1 ;     C1 - C4    
    33     48      1 ;     C1 - H6    
    33     49      1 ;     C1 - H7    
    34     37      1 ;     C2 - C5    
    34     50      1 ;     C2 - H8    
    34     51      1 ;     C2 - H9    
    35     38      1 ;     C3 - C6    
    35     43      1 ;     C3 - H1    
    35     44      1 ;     C3 - H2    
    35     45      1 ;     C3 - H3    
    35     52      1 ;     C3 - H10   
    35     53      1 ;     C3 - H11   
    36     39      1 ;     C4 - C7    
    36     46      1 ;     C4 - H4    
    36     47      1 ;     C4 - H5    
    36     54      1 ;     C4 - H12   
    36     55      1 ;     C4 - H13   
    37     40      1 ;     C5 - C8    
    37     48      1 ;     C5 - H6    
    37     49      1 ;     C5 - H7    
    37     56      1 ;     C5 - H14   
    37     57      1 ;     C5 - H15   
    38     41      1 ;     C6 - C9    
    38     50      1 ;     C6 - H8    
    38     51      1 ;     C6 - H9    
    38     58      1 ;     C6 - H16   
    38     59      1 ;     C6 - H17   
    39     42      1 ;     C7 - C10   
    39     52      1 ;     C7 - H10   
    39     53      1 ;     C7 - H11   
    39     60      1 ;     C7 - H18   
    39     61      1 ;     C7 - H19   
    40     54      1 ;     C8 - H12   
    40     55      1 ;     C8 - H13   
    40     62      1 ;     C8 - H20   
    40     63      1 ;     C8 - H21   
    40     64      1 ;     C8 - H22   
    41     56      1 ;     C9 - H14   
    41     57      1 ;     C9 - H15   
    42     58      1 ;    C10 - H16   
    42     59      1 ;    C10 - H17   
    43     46      1 ;     H1 - H4    
    43     47      1 ;     H1 - H5    
    44     46      1 ;     H2 - H4    
    44     47      1 ;     H2 - H5    
    45     46      1 ;     H3 - H4    
    45     47      1 ;     H3 - H5    
    46     48      1 ;     H4 - H6    
    46     49      1 ;     H4 - H7    
    47     48      1 ;     H5 - H6    
    47     49      1 ;     H5 - H7    
    48     50      1 ;     H6 - H8    
    48     51      1 ;     H6 - H9    
    49     50      1 ;     H7 - H8    
    49     51      1 ;     H7 - H9    
    50     52      1 ;     H8 - H10   
    50     53      1 ;     H8 - H11   
    51     52      1 ;     H9 - H10   
    51     53      1 ;     H9 - H11   
    52     54      1 ;    H10 - H12   
    52     55      1 ;    H10 - H13   
    53     54      1 ;    H11 - H12   
    53     55      1 ;    H11 - H13   
    54     56      1 ;    H12 - H14   
    54     57      1 ;    H12 - H15   
    55     56      1 ;    H13 - H14   
    55     57      1 ;    H13 - H15   
    56     58      1 ;    H14 - H16   
    56     59      1 ;    H14 - H17   
    57     58      1 ;    H15 - H16   
    57     59      1 ;    H15 - H17   
    58     60      1 ;    H16 - H18   
    58     61      1 ;    H16 - H19   
    59     60      1 ;    H17 - H18   
    59     61      1 ;    H17 - H19   
    60     62      1 ;    H18 - H20   
    60     63      1 ;    H18 - H21   
    60     64      1 ;    H18 - H22   
    61     62      1 ;    H19 - H20   
    61     63      1 ;    H19 - H21   
    61     64      1 ;    H19 - H22   
    65     68      1 ;     C1 - C4    
    65     80      1 ;     C1 - H6    
    65     81      1 ;     C1 - H7    
    66     69      1 ;     C2 - C5    
    66     82      1 ;     C2 - H8    
    66     83      1 ;     C2 - H9    
    67     70      1 ;     C3 - C6    
    67     75      1 ;     C3 - H1    
    67     76      1 ;     C3 - H2    
    67     77      1 ;     C3 - H3    
    67     84      1 ;     C3 - H10   
    67     85      1 ;     C3 - H11   
    68     71      1 ;     C4 - C7    
    68     78      1 ;     C4 - H4    
    68     79      1 ;     C4 - H5    
    68     86      1 ;     C4 - H12   
    68     87      1 ;     C4 - H13   
    69     72      1 ;     C5 - C8    
    69     80      1 ;     C5 - H6    
    69     81      1 ;     C5 - H7    
    69     88      1 ;     C5 - H14   
    69     89      1 ;     C5 - H15   
    70     73      1 ;     C6 - C9    
    70     82      1 ;     C6 - H8    
    70     83      1 ;     C6 - H9    
    70     90      1 ;     C6 - H16   
    70     91      1 ;     C6 - H17   
    71     74      1 ;     C7 - C10   
    71     84      1 ;     C7 - H10   
    71     85      1 ;     C7 - H11   
    71     92      1 ;     C7 - H18   
    71     93      1 ;     C7 - H19   
    72     86      1 ;     C8 - H12   
    72     87      1 ;     C8 - H13   
    72     94      1 ;     C8 - H20   
    72     95      1 ;     C8 - H21   
    72     96      1 ;     C8 - H22   
    73     88      1 ;     C9 - H14   
    73     89      1 ;     C9 - H15   
    74     90      1 ;    C10 - H16   
    74     91      1 ;    C10 - H17   
    75     78      1 ;     H1 - H4    
    75     79      1 ;     H1 - H5    
    76     78      1 ;     H2 - H4    
    76     79      1 ;     H2 - H5    
    77     78      1 ;     H3 - H4    
    77     79      1 ;     H3 - H5    
    78     80      1 ;     H4 - H6    
    78     81      1 ;     H4 - H7    
    79     80      1 ;     H5 - H6    
    79     81      1 ;     H5 - H7    
    80     82      1 ;     H6 - H8    
    80     83      1 ;     H6 - H9    
    81     82      1 ;     H7 - H8    
    81     83      1 ;     H7 - H9    
    82     84      1 ;     H8 - H10   
    82     85      1 ;     H8 - H11   
    83     84      1 ;     H9 - H10   
    83     85      1 ;     H9 - H11   
    84     86      1 ;    H10 - H12   
    84     87      1 ;    H10 - H13   
    85     86      1 ;    H11 - H12   
    85     87      1 ;    H11 - H13   
    86     88      1 ;    H12 - H14   
    86     89      1 ;    H12 - H15   
    87     88      1 ;    H13 - H14   
    87     89      1 ;    H13 - H15   
    88     90      1 ;    H14 - H16   
    88     91      1 ;    H14 - H17   
    89     90      1 ;    H15 - H16   
    89     91      1 ;    H15 - H17   
    90     92      1 ;    H16 - H18   
    90     93      1 ;    H16 - H19   
    91     92      1 ;    H17 - H18   
    91     93      1 ;    H17 - H19   
    92     94      1 ;    H18 - H20   
    92     95      1 ;    H18 - H21   
    92     96      1 ;    H18 - H22   
    93     94      1 ;    H19 - H20   
    93     95      1 ;    H19 - H21   
    93     96      1 ;    H19 - H22   
    97    100      1 ;     C1 - C4    
    97    112      1 ;     C1 - H6    
    97    113      1 ;     C1 - H7    
    98    101      1 ;     C2 - C5    
    98    114      1 ;     C2 - H8    
    98    115      1 ;     C2 - H9    
    99    102      1 ;     C3 - C6    
    99    107      1 ;     C3 - H1    
    99    108      1 ;     C3 - H2    
    99    109      1 ;     C3 - H3    
    99    116      1 ;     C3 - H10   
    99    117      1 ;     C3 - H11   
   100    103      1 ;     C4 - C7    
   100    110      1 ;     C4 - H4    
   100    111      1 ;     C4 - H5    
   100    118      1 ;     C4 - H12   
   100    119      1 ;     C4 - H13   
   101    104      1 ;     C5 - C8    
   101    112      1 ;     C5 - H6    
   101    113      1 ;     C5 - H7    
   101    120      1 ;     C5 - H14   
   101    121      1 ;     C5 - H15   
   102    105      1 ;     C6 - C9    
   102    114      1 ;     C6 - H8    
   102    115      1 ;     C6 - H9    
   102    122      1 ;     C6 - H16   
   102    123      1 ;     C6 - H17   
   103    106      1 ;     C7 - C10   
   103    116      1 ;     C7 - H10   
   103    117      1 ;     C7 - H11   
   103    124      1 ;     C7 - H18   
   103    125      1 ;     C7 - H19   
   104    118      1 ;     C8 - H12   
   104    119      1 ;     C8 - H13   
   104    126      1 ;     C8 - H20   
   104    127      1 ;     C8 - H21   
   104    128      1 ;     C8 - H22   
   105    120      1 ;     C9 - H14   
   105    121      1 ;     C9 - H15   
   106    122      1 ;    C10 - H16   
   106    123      1 ;    C10 - H17   
   107    110      1 ;     H1 - H4    
   107    111      1 ;     H1 - H5    
   108    110      1 ;     H2 - H4    
   108    111      1 ;     H2 - H5    
   109    110      1 ;     H3 - H4    
   109    111      1 ;     H3 - H5    
   110    112      1 ;     H4 - H6    
   110    113      1 ;     H4 - H7    
   111    112      1 ;     H5 - H6    
   111    113      1 ;     H5 - H7    
   112    114      1 ;     H6 - H8    
   112    115      1 ;     H6 - H9    
   113    114      1 ;     H7 - H8    
   113    115      1 ;     H7 - H9    
   114    116      1 ;     H8 - H10   
   114    117      1 ;     H8 - H11   
   115    116      1 ;     H9 - H10   
   115    117      1 ;     H9 - H11   
   116    118      1 ;    H10 - H12   
   116    119      1 ;    H10 - H13   
   117    118      1 ;    H11 - H12   
   117    119      1 ;    H11 - H13   
   118    120      1 ;    H12 - H14   
   118    121      1 ;    H12 - H15   
   119    120      1 ;    H13 - H14   
   119    121      1 ;    H13 - H15   
   120    122      1 ;    H14 - H16   
   120    123      1 ;    H14 - H17   
   121    122      1 ;    H15 - H16   
   121    123      1 ;    H15 - H17   
   122    124      1 ;    H16 - H18   
   122    125      1 ;    H16 - H19   
   123    124      1 ;    H17 - H18   
   123    125      1 ;    H17 - H19   
   124    126      1 ;    H18 - H20   
   124    127      1 ;    H18 - H21   
   124    128      1 ;    H18 - H22   
   125    126      1 ;    H19 - H20   
   125    127      1 ;    H19 - H21   
   125    128      1 ;    H19 - H22   
   129    132      1 ;     C1 - C4    
   129    144      1 ;     C1 - H6    
   129    145      1 ;     C1 - H7    
   130    133      1 ;     C2 - C5    
   130    146      1 ;     C2 - H8    
   130    147      1 ;     C2 - H9    
   131    134      1 ;     C3 - C6    
   131    139      1 ;     C3 - H1    
   131    140      1 ;     C3 - H2    
   131    141      1 ;     C3 - H3    
   131    148      1 ;     C3 - H10   
   131    149      1 ;     C3 - H11   
   132    135      1 ;     C4 - C7    
   132    142      1 ;     C4 - H4    
   132    143      1 ;     C4 - H5    
   132    150      1 ;     C4 - H12   
   132    151      1 ;     C4 - H13   
   133    136      1 ;     C5 - C8    
   133    144      1 ;     C5 - H6    
   133    145      1 ;     C5 - H7    
   133    152      1 ;     C5 - H14   
   133    153      1 ;     C5 - H15   
   134    137      1 ;     C6 - C9    
   134    146      1 ;     C6 - H8    
   134    147      1 ;     C6 - H9    
   134    154      1 ;     C6 - H16   
   134    155      1 ;     C6 - H17   
   135    138      1 ;     C7 - C10   
   135    148      1 ;     C7 - H10   
   135    149      1 ;     C7 - H11   
   135    156      1 ;     C7 - H18   
   135    157      1 ;     C7 - H19   
   136    150      1 ;     C8 - H12   
   136    151      1 ;     C8 - H13   
   136    158      1 ;     C8 - H20   
   136    159      1 ;     C8 - H21   
   136    160      1 ;     C8 - H22   
   137    152      1 ;     C9 - H14   
   137    153      1 ;     C9 - H15   
   138    154      1 ;    C10 - H16   
   138    155      1 ;    C10 - H17   
   139    142      1 ;     H1 - H4    
   139    143      1 ;     H1 - H5    
   140    142      1 ;     H2 - H4    
   140    143      1 ;     H2 - H5    
   141    142      1 ;     H3 - H4    
   141    143      1 ;     H3 - H5    
   142    144      1 ;     H4 - H6    
   142    145      1 ;     H4 - H7    
   143    144      1 ;     H5 - H6    
   143    145      1 ;     H5 - H7    
   144    146      1 ;     H6 - H8    
   144    147      1 ;     H6 - H9    
   145    146      1 ;     H7 - H8    
   145    147      1 ;     H7 - H9    
   146    148      1 ;     H8 - H10   
   146    149      1 ;     H8 - H11   
   147    148      1 ;     H9 - H10   
   147    149      1 ;     H9 - H11   
   148    150      1 ;    H10 - H12   
   148    151      1 ;    H10 - H13   
   149    150      1 ;    H11 - H12   
   149    151      1 ;    H11 - H13   
   150    152      1 ;    H12 - H14   
   150    153      1 ;    H12 - H15   
   151    152      1 ;    H13 - H14   
   151    153      1 ;    H13 - H15   
   152    154      1 ;    H14 - H16   
   152    155      1 ;    H14 - H17   
   153    154      1 ;    H15 - H16   
   153    155      1 ;    H15 - H17   
   154    156      1 ;    H16 - H18   
   154    157      1 ;    H16 - H19   
   155    156      1 ;    H17 - H18   
   155    157      1 ;    H17 - H19   
   156    158      1 ;    H18 - H20   
   156    159      1 ;    H18 - H21   
   156    160      1 ;    H18 - H22   
   157    158      1 ;    H19 - H20   
   157    159      1 ;    H19 - H21   
   157    160      1 ;    H19 - H22   
   161    164      1 ;     C1 - C4    
   161    176      1 ;     C1 - H6    
   161    177      1 ;     C1 - H7    
   162    165      1 ;     C2 - C5    
   162    178      1 ;     C2 - H8    
   162    179      1 ;     C2 - H9    
   163    166      1 ;     C3 - C6    
   163    171      1 ;     C3 - H1    
   163    172      1 ;     C3 - H2    
   163    173      1 ;     C3 - H3    
   163    180      1 ;     C3 - H10   
   163    181      1 ;     C3 - H11   
   164    167      1 ;     C4 - C7    
   164    174      1 ;     C4 - H4    
   164    175      1 ;     C4 - H5    
   164    182      1 ;     C4 - H12   
   164    183      1 ;     C4 - H13   
   165    168      1 ;     C5 - C8    
   165    176      1 ;     C5 - H6    
   165    177      1 ;     C5 - H7    
   165    184      1 ;     C5 - H14   
   165    185      1 ;     C5 - H15   
   166    169      1 ;     C6 - C9    
   166    178      1 ;     C6 - H8    
   166    179      1 ;     C6 - H9    
   166    186      1 ;     C6 - H16   
   166    187      1 ;     C6 - H17   
   167    170      1 ;     C7 - C10   
   167    180      1 ;     C7 - H10   
   167    181      1 ;     C7 - H11   
   167    188      1 ;     C7 - H18   
   167    189      1 ;     C7 - H19   
   168    182      1 ;     C8 - H12   
   168    183      1 ;     C8 - H13   
   168    190      1 ;     C8 - H20   
   168    191      1 ;     C8 - H21   
   168    192      1 ;     C8 - H22   
   169    184      1 ;     C9 - H14   
   169    185      1 ;     C9 - H15   
   170    186      1 ;    C10 - H16   
   170    187      1 ;    C10 - H17   
   171    174      1 ;     H1 - H4    
   171    175      1 ;     H1 - H5    
   172    174      1 ;     H2 - H4    
   172    175      1 ;     H2 - H5    
   173    174      1 ;     H3 - H4    
   173    175      1 ;     H3 - H5    
   174    176      1 ;     H4 - H6    
   174    177      1 ;     H4 - H7    
   175    176      1 ;     H5 - H6    
   175    177      1 ;     H5 - H7    
   176    178      1 ;     H6 - H8    
   176    179      1 ;     H6 - H9    
   177    178      1 ;     H7 - H8    
   177    179      1 ;     H7 - H9    
   178    180      1 ;     H8 - H10   
   178    181      1 ;     H8 - H11   
   179    180      1 ;     H9 - H10   
   179    181      1 ;     H9 - H11   
   180    182      1 ;    H10 - H12   
   180    183      1 ;    H10 - H13   
   181    182      1 ;    H11 - H12   
   181    183      1 ;    H11 - H13   
   182    184      1 ;    H12 - H14   
   182    185      1 ;    H12 - H15   
   183    184      1 ;    H13 - H14   
   183    185      1 ;    H13 - H15   
   184    186      1 ;    H14 - H16   
   184    187      1 ;    H14 - H17   
   185    186      1 ;    H15 - H16   
   185    187      1 ;    H15 - H17   
   186    188      1 ;    H16 - H18   
   186    189      1 ;    H16 - H19   
   187    188      1 ;    H17 - H18   
   187    189      1 ;    H17 - H19   
   188    190      1 ;    H18 - H20   
   188    191      1 ;    H18 - H21   
   188    192      1 ;    H18 - H22   
   189    190      1 ;    H19 - H20   
   189    191      1 ;    H19 - H21   
   189    192      1 ;    H19 - H22   
   193    196      1 ;     C1 - C4    
   193    208      1 ;     C1 - H6    
   193    209      1 ;     C1 - H7    
   194    197      1 ;     C2 - C5    
   194    210      1 ;     C2 - H8    
   194    211      1 ;     C2 - H9    
   195    198      1 ;     C3 - C6    
   195    203      1 ;     C3 - H1    
   195    204      1 ;     C3 - H2    
   195    205      1 ;     C3 - H3    
   195    212      1 ;     C3 - H10   
   195    213      1 ;     C3 - H11   
   196    199      1 ;     C4 - C7    
   196    206      1 ;     C4 - H4    
   196    207      1 ;     C4 - H5    
   196    214      1 ;     C4 - H12   
   196    215      1 ;     C4 - H13   
   197    200      1 ;     C5 - C8    
   197    208      1 ;     C5 - H6    
   197    209      1 ;     C5 - H7    
   197    216      1 ;     C5 - H14   
   197    217      1 ;     C5 - H15   
   198    201      1 ;     C6 - C9    
   198    210      1 ;     C6 - H8    
   198    211      1 ;     C6 - H9    
   198    218      1 ;     C6 - H16   
   198    219      1 ;     C6 - H17   
   199    202      1 ;     C7 - C10   
   199    212      1 ;     C7 - H10   
   199    213      1 ;     C7 - H11   
   199    220      1 ;     C7 - H18   
   199    221      1 ;     C7 - H19   
   200    214      1 ;     C8 - H12   
   200    215      1 ;     C8 - H13   
   200    222      1 ;     C8 - H20   
   200    223      1 ;     C8 - H21   
   200    224      1 ;     C8 - H22   
   201    216      1 ;     C9 - H14   
   201    217      1 ;     C9 - H15   
   202    218      1 ;    C10 - H16   
   202    219      1 ;    C10 - H17   
   203    206      1 ;     H1 - H4    
   203    207      1 ;     H1 - H5    
   204    206      1 ;     H2 - H4    
   204    207      1 ;     H2 - H5    
   205    206      1 ;     H3 - H4    
   205    207      1 ;     H3 - H5    
   206    208      1 ;     H4 - H6    
   206    209      1 ;     H4 - H7    
   207    208      1 ;     H5 - H6    
   207    209      1 ;     H5 - H7    
   208    210      1 ;     H6 - H8    
   208    211      1 ;     H6 - H9    
   209    210      1 ;     H7 - H8    
   209    211      1 ;     H7 - H9    
   210    212      1 ;     H8 - H10   
   210    213      1 ;     H8 - H11   
   211    212      1 ;     H9 - H10   
   211    213      1 ;     H9 - H11   
   212    214      1 ;    H10 - H12   
   212    215      1 ;    H10 - H13   
   213    214      1 ;    H11 - H12   
   213    215      1 ;    H11 - H13   
   214    216      1 ;    H12 - H14   
   214    217      1 ;    H12 - H15   
   215    216      1 ;    H13 - H14   
   215    217      1 ;    H13 - H15   
   216    218      1 ;    H14 - H16   
   216    219      1 ;    H14 - H17   
   217    218      1 ;    H15 - H16   
   217    219      1 ;    H15 - H17   
   218    220      1 ;    H16 - H18   
   218    221      1 ;    H16 - H19   
   219    220      1 ;    H17 - H18   
   219    221      1 ;    H17 - H19   
   220    222      1 ;    H18 - H20   
   220    223      1 ;    H18 - H21   
   220    224      1 ;    H18 - H22   
   221    222      1 ;    H19 - H20   
   221    223      1 ;    H19 - H21   
   221    224      1 ;    H19 - H22   
   225    228      1 ;     C1 - C4    
   225    240      1 ;     C1 - H6    
   225    241      1 ;     C1 - H7    
   226    229      1 ;     C2 - C5    
   226    242      1 ;     C2 - H8    
   226    243      1 ;     C2 - H9    
   227    230      1 ;     C3 - C6    
   227    235      1 ;     C3 - H1    
   227    236      1 ;     C3 - H2    
   227    237      1 ;     C3 - H3    
   227    244      1 ;     C3 - H10   
   227    245      1 ;     C3 - H11   
   228    231      1 ;     C4 - C7    
   228    238      1 ;     C4 - H4    
   228    239      1 ;     C4 - H5    
   228    246      1 ;     C4 - H12   
   228    247      1 ;     C4 - H13   
   229    232      1 ;     C5 - C8    
   229    240      1 ;     C5 - H6    
   229    241      1 ;     C5 - H7    
   229    248      1 ;     C5 - H14   
   229    249      1 ;     C5 - H15   
   230    233      1 ;     C6 - C9    
   230    242      1 ;     C6 - H8    
   230    243      1 ;     C6 - H9    
   230    250      1 ;     C6 - H16   
   230    251      1 ;     C6 - H17   
   231    234      1 ;     C7 - C10   
   231    244      1 ;     C7 - H10   
   231    245      1 ;     C7 - H11   
   231    252      1 ;     C7 - H18   
   231    253      1 ;     C7 - H19   
   232    246      1 ;     C8 - H12   
   232    247      1 ;     C8 - H13   
   232    254      1 ;     C8 - H20   
   232    255      1 ;     C8 - H21   
   232    256      1 ;     C8 - H22   
   233    248      1 ;     C9 - H14   
   233    249      1 ;     C9 - H15   
   234    250      1 ;    C10 - H16   
   234    251      1 ;    C10 - H17   
   235    238      1 ;     H1 - H4    
   235    239      1 ;     H1 - H5    
   236    238      1 ;     H2 - H4    
   236    239      1 ;     H2 - H5    
   237    238      1 ;     H3 - H4    
   237    239      1 ;     H3 - H5    
   238    240      1 ;     H4 - H6    
   238    241      1 ;     H4 - H7    
   239    240      1 ;     H5 - H6    
   239    241      1 ;     H5 - H7    
   240    242      1 ;     H6 - H8    
   240    243      1 ;     H6 - H9    
   241    242      1 ;     H7 - H8    
   241    243      1 ;     H7 - H9    
   242    244      1 ;     H8 - H10   
   242    245      1 ;     H8 - H11   
   243    244      1 ;     H9 - H10   
   243    245      1 ;     H9 - H11   
   244    246      1 ;    H10 - H12   
   244    247      1 ;    H10 - H13   
   245    246      1 ;    H11 - H12   
   245    247      1 ;    H11 - H13   
   246    248      1 ;    H12 - H14   
   246    249      1 ;    H12 - H15   
   247    248      1 ;    H13 - H14   
   247    249      1 ;    H13 - H15   
   248    250      1 ;    H14 - H16   
   248    251      1 ;    H14 - H17   
   249    250      1 ;    H15 - H16   
   249    251      1 ;    H15 - H17   
   250    252      1 ;    H16 - H18   
   250    253      1 ;    H16 - H19   
   251    252      1 ;    H17 - H18   
   251    253      1 ;    H17 - H19   
   252    254      1 ;    H18 - H20   
   252    255      1 ;    H18 - H21   
   252    256      1 ;    H18 - H22   
   253    254      1 ;    H19 - H20   
   253    255      1 ;    H19 - H21   
   253    256      1 ;    H19 - H22   
   257    260      1 ;     C1 - C4    
   257    272      1 ;     C1 - H6    
   257    273      1 ;     C1 - H7    
   258    261      1 ;     C2 - C5    
   258    274      1 ;     C2 - H8    
   258    275      1 ;     C2 - H9    
   259    262      1 ;     C3 - C6    
   259    267      1 ;     C3 - H1    
   259    268      1 ;     C3 - H2    
   259    269      1 ;     C3 - H3    
   259    276      1 ;     C3 - H10   
   259    277      1 ;     C3 - H11   
   260    263      1 ;     C4 - C7    
   260    270      1 ;     C4 - H4    
   260    271      1 ;     C4 - H5    
   260    278      1 ;     C4 - H12   
   260    279      1 ;     C4 - H13   
   261    264      1 ;     C5 - C8    
   261    272      1 ;     C5 - H6    
   261    273      1 ;     C5 - H7    
   261    280      1 ;     C5 - H14   
   261    281      1 ;     C5 - H15   
   262    265      1 ;     C6 - C9    
   262    274      1 ;     C6 - H8    
   262    275      1 ;     C6 - H9    
   262    282      1 ;     C6 - H16   
   262    283      1 ;     C6 - H17   
   263    266      1 ;     C7 - C10   
   263    276      1 ;     C7 - H10   
   263    277      1 ;     C7 - H11   
   263    284      1 ;     C7 - H18   
   263    285      1 ;     C7 - H19   
   264    278      1 ;     C8 - H12   
   264    279      1 ;     C8 - H13   
   264    286      1 ;     C8 - H20   
   264    287      1 ;     C8 - H21   
   264    288      1 ;     C8 - H22   
   265    280      1 ;     C9 - H14   
   265    281      1 ;     C9 - H15   
   266    282      1 ;    C10 - H16   
   266    283      1 ;    C10 - H17   
   267    270      1 ;     H1 - H4    
   267    271      1 ;     H1 - H5    
   268    270      1 ;     H2 - H4    
   268    271      1 ;     H2 - H5    
   269    270      1 ;     H3 - H4    
   269    271      1 ;     H3 - H5    
   270    272      1 ;     H4 - H6    
   270    273      1 ;     H4 - H7    
   271    272      1 ;     H5 - H6    
   271    273      1 ;     H5 - H7    
   272    274      1 ;     H6 - H8    
   272    275      1 ;     H6 - H9    
   273    274      1 ;     H7 - H8    
   273    275      1 ;     H7 - H9    
   274    276      1 ;     H8 - H10   
   274    277      1 ;     H8 - H11   
   275    276      1 ;     H9 - H10   
   275    277      1 ;     H9 - H11   
   276    278      1 ;    H10 - H12   
   276    279      1 ;    H10 - H13   
   277    278      1 ;    H11 - H12   
   277    279      1 ;    H11 - H13   
   278    280      1 ;    H12 - H14   
   278    281      1 ;    H12 - H15   
   279    280      1 ;    H13 - H14   
   279    281      1 ;    H13 - H15   
   280    282      1 ;    H14 - H16   
   280    283      1 ;    H14 - H17   
   281    282      1 ;    H15 - H16   
   281    283      1 ;    H15 - H17   
   282    284      1 ;    H16 - H18   
   282    285      1 ;    H16 - H19   
   283    284      1 ;    H17 - H18   
   283    285      1 ;    H17 - H19   
   284    286      1 ;    H18 - H20   
   284    287      1 ;    H18 - H21   
   284    288      1 ;    H18 - H22   
   285    286      1 ;    H19 - H20   
   285    287      1 ;    H19 - H21   
   285    288      1 ;    H19 - H22   
   289    292      1 ;     C1 - C4    
   289    304      1 ;     C1 - H6    
   289    305      1 ;     C1 - H7    
   290    293      1 ;     C2 - C5    
   290    306      1 ;     C2 - H8    
   290    307      1 ;     C2 - H9    
   291    294      1 ;     C3 - C6    
   291    299      1 ;     C3 - H1    
   291    300      1 ;     C3 - H2    
   291    301      1 ;     C3 - H3    
   291    308      1 ;     C3 - H10   
   291    309      1 ;     C3 - H11   
   292    295      1 ;     C4 - C7    
   292    302      1 ;     C4 - H4    
   292    303      1 ;     C4 - H5    
   292    310      1 ;     C4 - H12   
   292    311      1 ;     C4 - H13   
   293    296      1 ;     C5 - C8    
   293    304      1 ;     C5 - H6    
   293    305      1 ;     C5 - H7    
   293    312      1 ;     C5 - H14   
   293    313      1 ;     C5 - H15   
   294    297      1 ;     C6 - C9    
   294    306      1 ;     C6 - H8    
   294    307      1 ;     C6 - H9    
   294    314      1 ;     C6 - H16   
   294    315      1 ;     C6 - H17   
   295    298      1 ;     C7 - C10   
   295    308      1 ;     C7 - H10   
   295    309      1 ;     C7 - H11   
   295    316      1 ;     C7 - H18   
   295    317      1 ;     C7 - H19   
   296    310      1 ;     C8 - H12   
   296    311      1 ;     C8 - H13   
   296    318      1 ;     C8 - H20   
   296    319      1 ;     C8 - H21   
   296    320      1 ;     C8 - H22   
   297    312      1 ;     C9 - H14   
   297    313      1 ;     C9 - H15   
   298    314      1 ;    C10 - H16   
   298    315      1 ;    C10 - H17   
   299    302      1 ;     H1 - H4    
   299    303      1 ;     H1 - H5    
   300    302      1 ;     H2 - H4    
   300    303      1 ;     H2 - H5    
   301    302      1 ;     H3 - H4    
   301    303      1 ;     H3 - H5    
   302    304      1 ;     H4 - H6    
   302    305      1 ;     H4 - H7    
   303    304      1 ;     H5 - H6    
   303    305      1 ;     H5 - H7    
   304    306      1 ;     H6 - H8    
   304    307      1 ;     H6 - H9    
   305    306      1 ;     H7 - H8    
   305    307      1 ;     H7 - H9    
   306    308      1 ;     H8 - H10   
   306    309      1 ;     H8 - H11   
   307    308      1 ;     H9 - H10   
   307    309      1 ;     H9 - H11   
   308    310      1 ;    H10 - H12   
   308    311      1 ;    H10 - H13   
   309    310      1 ;    H11 - H12   
   309    311      1 ;    H11 - H13   
   310    312      1 ;    H12 - H14   
   310    313      1 ;    H12 - H15   
   311    312      1 ;    H13 - H14   
   311    313      1 ;    H13 - H15   
   312    314      1 ;    H14 - H16   
   312    315      1 ;    H14 - H17   
   313    314      1 ;    H15 - H16   
   313    315      1 ;    H15 - H17   
   314    316      1 ;    H16 - H18   
   314    317      1 ;    H16 - H19   
   315    316      1 ;    H17 - H18   
   315    317      1 ;    H17 - H19   
   316    318      1 ;    H18 - H20   
   316    319      1 ;    H18 - H21   
   316    320      1 ;    H18 - H22   
   317    318      1 ;    H19 - H20   
   317    319      1 ;    H19 - H21   
   317    320      1 ;    H19 - H22   
   321    324      1 ;     C1 - C4    
   321    336      1 ;     C1 - H6    
   321    337      1 ;     C1 - H7    
   322    325      1 ;     C2 - C5    
   322    338      1 ;     C2 - H8    
   322    339      1 ;     C2 - H9    
   323    326      1 ;     C3 - C6    
   323    331      1 ;     C3 - H1    
   323    332      1 ;     C3 - H2    
   323    333      1 ;     C3 - H3    
   323    340      1 ;     C3 - H10   
   323    341      1 ;     C3 - H11   
   324    327      1 ;     C4 - C7    
   324    334      1 ;     C4 - H4    
   324    335      1 ;     C4 - H5    
   324    342      1 ;     C4 - H12   
   324    343      1 ;     C4 - H13   
   325    328      1 ;     C5 - C8    
   325    336      1 ;     C5 - H6    
   325    337      1 ;     C5 - H7    
   325    344      1 ;     C5 - H14   
   325    345      1 ;     C5 - H15   
   326    329      1 ;     C6 - C9    
   326    338      1 ;     C6 - H8    
   326    339      1 ;     C6 - H9    
   326    346      1 ;     C6 - H16   
   326    347      1 ;     C6 - H17   
   327    330      1 ;     C7 - C10   
   327    340      1 ;     C7 - H10   
   327    341      1 ;     C7 - H11   
   327    348      1 ;     C7 - H18   
   327    349      1 ;     C7 - H19   
   328    342      1 ;     C8 - H12   
   328    343      1 ;     C8 - H13   
   328    350      1 ;     C8 - H20   
   328    351      1 ;     C8 - H21   
   328    352      1 ;     C8 - H22   
   329    344      1 ;     C9 - H14   
   329    345      1 ;     C9 - H15   
   330    346      1 ;    C10 - H16   
   330    347      1 ;    C10 - H17   
   331    334      1 ;     H1 - H4    
   331    335      1 ;     H1 - H5    
   332    334      1 ;     H2 - H4    
   332    335      1 ;     H2 - H5    
   333    334      1 ;     H3 - H4    
   333    335      1 ;     H3 - H5    
   334    336      1 ;     H4 - H6    
   334    337      1 ;     H4 - H7    
   335    336      1 ;     H5 - H6    
   335    337      1 ;     H5 - H7    
   336    338      1 ;     H6 - H8    
   336    339      1 ;     H6 - H9    
   337    338      1 ;     H7 - H8    
   337    339      1 ;     H7 - H9    
   338    340      1 ;     H8 - H10   
   338    341      1 ;     H8 - H11   
   339    340      1 ;     H9 - H10   
   339    341      1 ;     H9 - H11   
   340    342      1 ;    H10 - H12   
   340    343      1 ;    H10 - H13   
   341    342      1 ;    H11 - H12   
   341    343      1 ;    H11 - H13   
   342    344      1 ;    H12 - H14   
   342    345      1 ;    H12 - H15   
   343    344      1 ;    H13 - H14   
   343    345      1 ;    H13 - H15   
   344    346      1 ;    H14 - H16   
   344    347      1 ;    H14 - H17   
   345    346      1 ;    H15 - H16   
   345    347      1 ;    H15 - H17   
   346    348      1 ;    H16 - H18   
   346    349      1 ;    H16 - H19   
   347    348      1 ;    H17 - H18   
   347    349      1 ;    H17 - H19   
   348    350      1 ;    H18 - H20   
   348    351      1 ;    H18 - H21   
   348    352      1 ;    H18 - H22   
   349    350      1 ;    H19 - H20   
   349    351      1 ;    H19 - H21   
   349    352      1 ;    H19 - H22   
   353    356      1 ;     C1 - C4    
   353    368      1 ;     C1 - H6    
   353    369      1 ;     C1 - H7    
   354    357      1 ;     C2 - C5    
   354    370      1 ;     C2 - H8    
   354    371      1 ;     C2 - H9    
   355    358      1 ;     C3 - C6    
   355    363      1 ;     C3 - H1    
   355    364      1 ;     C3 - H2    
   355    365      1 ;     C3 - H3    
   355    372      1 ;     C3 - H10   
   355    373      1 ;     C3 - H11   
   356    359      1 ;     C4 - C7    
   356    366      1 ;     C4 - H4    
   356    367      1 ;     C4 - H5    
   356    374      1 ;     C4 - H12   
   356    375      1 ;     C4 - H13   
   357    360      1 ;     C5 - C8    
   357    368      1 ;     C5 - H6    
   357    369      1 ;     C5 - H7    
   357    376      1 ;     C5 - H14   
   357    377      1 ;     C5 - H15   
   358    361      1 ;     C6 - C9    
   358    370      1 ;     C6 - H8    
   358    371      1 ;     C6 - H9    
   358    378      1 ;     C6 - H16   
   358    379      1 ;     C6 - H17   
   359    362      1 ;     C7 - C10   
   359    372      1 ;     C7 - H10   
   359    373      1 ;     C7 - H11   
   359    380      1 ;     C7 - H18   
   359    381      1 ;     C7 - H19   
   360    374      1 ;     C8 - H12   
   360    375      1 ;     C8 - H13   
   360    382      1 ;     C8 - H20   
   360    383      1 ;     C8 - H21   
   360    384      1 ;     C8 - H22   
   361    376      1 ;     C9 - H14   
   361    377      1 ;     C9 - H15   
   362    378      1 ;    C10 - H16   
   362    379      1 ;    C10 - H17   
   363    366      1 ;     H1 - H4    
   363    367      1 ;     H1 - H5    
   364    366      1 ;     H2 - H4    
   364    367      1 ;     H2 - H5    
   365    366      1 ;     H3 - H4    
   365    367      1 ;     H3 - H5    
   366    368      1 ;     H4 - H6    
   366    369      1 ;     H4 - H7    
   367    368      1 ;     H5 - H6    
   367    369      1 ;     H5 - H7    
   368    370      1 ;     H6 - H8    
   368    371      1 ;     H6 - H9    
   369    370      1 ;     H7 - H8    
   369    371      1 ;     H7 - H9    
   370    372      1 ;     H8 - H10   
   370    373      1 ;     H8 - H11   
   371    372      1 ;     H9 - H10   
   371    373      1 ;     H9 - H11   
   372    374      1 ;    H10 - H12   
   372    375      1 ;    H10 - H13   
   373    374      1 ;    H11 - H12   
   373    375      1 ;    H11 - H13   
   374    376      1 ;    H12 - H14   
   374    377      1 ;    H12 - H15   
   375    376      1 ;    H13 - H14   
   375    377      1 ;    H13 - H15   
   376    378      1 ;    H14 - H16   
   376    379      1 ;    H14 - H17   
   377    378      1 ;    H15 - H16   
   377    379      1 ;    H15 - H17   
   378    380      1 ;    H16 - H18   
   378    381      1 ;    H16 - H19   
   379    380      1 ;    H17 - H18   
   379    381      1 ;    H17 - H19   
   380    382      1 ;    H18 - H20   
   380    383      1 ;    H18 - H21   
   380    384      1 ;    H18 - H22   
   381    382      1 ;    H19 - H20   
   381    383      1 ;    H19 - H21   
   381    384      1 ;    H19 - H22   
   385    388      1 ;     C1 - C4    
   385    400      1 ;     C1 - H6    
   385    401      1 ;     C1 - H7    
   386    389      1 ;     C2 - C5    
   386    402      1 ;     C2 - H8    
   386    403      1 ;     C2 - H9    
   387    390      1 ;     C3 - C6    
   387    395      1 ;     C3 - H1    
   387    396      1 ;     C3 - H2    
   387    397      1 ;     C3 - H3    
   387    404      1 ;     C3 - H10   
   387    405      1 ;     C3 - H11   
   388    391      1 ;     C4 - C7    
   388    398      1 ;     C4 - H4    
   388    399      1 ;     C4 - H5    
   388    406      1 ;     C4 - H12   
   388    407      1 ;     C4 - H13   
   389    392      1 ;     C5 - C8    
   389    400      1 ;     C5 - H6    
   389    401      1 ;     C5 - H7    
   389    408      1 ;     C5 - H14   
   389    409      1 ;     C5 - H15   
   390    393      1 ;     C6 - C9    
   390    402      1 ;     C6 - H8    
   390    403      1 ;     C6 - H9    
   390    410      1 ;     C6 - H16   
   390    411      1 ;     C6 - H17   
   391    394      1 ;     C7 - C10   
   391    404      1 ;     C7 - H10   
   391    405      1 ;     C7 - H11   
   391    412      1 ;     C7 - H18   
   391    413      1 ;     C7 - H19   
   392    406      1 ;     C8 - H12   
   392    407      1 ;     C8 - H13   
   392    414      1 ;     C8 - H20   
   392    415      1 ;     C8 - H21   
   392    416      1 ;     C8 - H22   
   393    408      1 ;     C9 - H14   
   393    409      1 ;     C9 - H15   
   394    410      1 ;    C10 - H16   
   394    411      1 ;    C10 - H17   
   395    398      1 ;     H1 - H4    
   395    399      1 ;     H1 - H5    
   396    398      1 ;     H2 - H4    
   396    399      1 ;     H2 - H5    
   397    398      1 ;     H3 - H4    
   397    399      1 ;     H3 - H5    
   398    400      1 ;     H4 - H6    
   398    401      1 ;     H4 - H7    
   399    400      1 ;     H5 - H6    
   399    401      1 ;     H5 - H7    
   400    402      1 ;     H6 - H8    
   400    403      1 ;     H6 - H9    
   401    402      1 ;     H7 - H8    
   401    403      1 ;     H7 - H9    
   402    404      1 ;     H8 - H10   
   402    405      1 ;     H8 - H11   
   403    404      1 ;     H9 - H10   
   403    405      1 ;     H9 - H11   
   404    406      1 ;    H10 - H12   
   404    407      1 ;    H10 - H13   
   405    406      1 ;    H11 - H12   
   405    407      1 ;    H11 - H13   
   406    408      1 ;    H12 - H14   
   406    409      1 ;    H12 - H15   
   407    408      1 ;    H13 - H14   
   407    409      1 ;    H13 - H15   
   408    410      1 ;    H14 - H16   
   408    411      1 ;    H14 - H17   
   409    410      1 ;    H15 - H16   
   409    411      1 ;    H15 - H17   
   410    412      1 ;    H16 - H18   
   410    413      1 ;    H16 - H19   
   411    412      1 ;    H17 - H18   
   411    413      1 ;    H17 - H19   
   412    414      1 ;    H18 - H20   
   412    415      1 ;    H18 - H21   
   412    416      1 ;    H18 - H22   
   413    414      1 ;    H19 - H20   
   413    415      1 ;    H19 - H21   
   413    416      1 ;    H19 - H22   
   417    420      1 ;     C1 - C4    
   417    432      1 ;     C1 - H6    
   417    433      1 ;     C1 - H7    
   418    421      1 ;     C2 - C5    
   418    434      1 ;     C2 - H8    
   418    435      1 ;     C2 - H9    
   419    422      1 ;     C3 - C6    
   419    427      1 ;     C3 - H1    
   419    428      1 ;     C3 - H2    
   419    429      1 ;     C3 - H3    
   419    436      1 ;     C3 - H10   
   419    437      1 ;     C3 - H11   
   420    423      1 ;     C4 - C7    
   420    430      1 ;     C4 - H4    
   420    431      1 ;     C4 - H5    
   420    438      1 ;     C4 - H12   
   420    439      1 ;     C4 - H13   
   421    424      1 ;     C5 - C8    
   421    432      1 ;     C5 - H6    
   421    433      1 ;     C5 - H7    
   421    440      1 ;     C5 - H14   
   421    441      1 ;     C5 - H15   
   422    425      1 ;     C6 - C9    
   422    434      1 ;     C6 - H8    
   422    435      1 ;     C6 - H9    
   422    442      1 ;     C6 - H16   
   422    443      1 ;     C6 - H17   
   423    426      1 ;     C7 - C10   
   423    436      1 ;     C7 - H10   
   423    437      1 ;     C7 - H11   
   423    444      1 ;     C7 - H18   
   423    445      1 ;     C7 - H19   
   424    438      1 ;     C8 - H12   
   424    439      1 ;     C8 - H13   
   424    446      1 ;     C8 - H20   
   424    447      1 ;     C8 - H21   
   424    448      1 ;     C8 - H22   
   425    440      1 ;     C9 - H14   
   425    441      1 ;     C9 - H15   
   426    442      1 ;    C10 - H16   
   426    443      1 ;    C10 - H17   
   427    430      1 ;     H1 - H4    
   427    431      1 ;     H1 - H5    
   428    430      1 ;     H2 - H4    
   428    431      1 ;     H2 - H5    
   429    430      1 ;     H3 - H4    
   429    431      1 ;     H3 - H5    
   430    432      1 ;     H4 - H6    
   430    433      1 ;     H4 - H7    
   431    432      1 ;     H5 - H6    
   431    433      1 ;     H5 - H7    
   432    434      1 ;     H6 - H8    
   432    435      1 ;     H6 - H9    
   433    434      1 ;     H7 - H8    
   433    435      1 ;     H7 - H9    
   434    436      1 ;     H8 - H10   
   434    437      1 ;     H8 - H11   
   435    436      1 ;     H9 - H10   
   435    437      1 ;     H9 - H11   
   436    438      1 ;    H10 - H12   
   436    439      1 ;    H10 - H13   
   437    438      1 ;    H11 - H12   
   437    439      1 ;    H11 - H13   
   438    440      1 ;    H12 - H14   
   438    441      1 ;    H12 - H15   
   439    440      1 ;    H13 - H14   
   439    441      1 ;    H13 - H15   
   440    442      1 ;    H14 - H16   
   440    443      1 ;    H14 - H17   
   441    442      1 ;    H15 - H16   
   441    443      1 ;    H15 - H17   
   442    444      1 ;    H16 - H18   
   442    445      1 ;    H16 - H19   
   443    444      1 ;    H17 - H18   
   443    445      1 ;    H17 - H19   
   444    446      1 ;    H18 - H20   
   444    447      1 ;    H18 - H21   
   444    448      1 ;    H18 - H22   
   445    446      1 ;    H19 - H20   
   445    447      1 ;    H19 - H21   
   445    448      1 ;    H19 - H22   
   449    452      1 ;     C1 - C4    
   449    464      1 ;     C1 - H6    
   449    465      1 ;     C1 - H7    
   450    453      1 ;     C2 - C5    
   450    466      1 ;     C2 - H8    
   450    467      1 ;     C2 - H9    
   451    454      1 ;     C3 - C6    
   451    459      1 ;     C3 - H1    
   451    460      1 ;     C3 - H2    
   451    461      1 ;     C3 - H3    
   451    468      1 ;     C3 - H10   
   451    469      1 ;     C3 - H11   
   452    455      1 ;     C4 - C7    
   452    462      1 ;     C4 - H4    
   452    463      1 ;     C4 - H5    
   452    470      1 ;     C4 - H12   
   452    471      1 ;     C4 - H13   
   453    456      1 ;     C5 - C8    
   453    464      1 ;     C5 - H6    
   453    465      1 ;     C5 - H7    
   453    472      1 ;     C5 - H14   
   453    473      1 ;     C5 - H15   
   454    457      1 ;     C6 - C9    
   454    466      1 ;     C6 - H8    
   454    467      1 ;     C6 - H9    
   454    474      1 ;     C6 - H16   
   454    475      1 ;     C6 - H17   
   455    458      1 ;     C7 - C10   
   455    468      1 ;     C7 - H10   
   455    469      1 ;     C7 - H11   
   455    476      1 ;     C7 - H18   
   455    477      1 ;     C7 - H19   
   456    470      1 ;     C8 - H12   
   456    471      1 ;     C8 - H13   
   456    478      1 ;     C8 - H20   
   456    479      1 ;     C8 - H21   
   456    480      1 ;     C8 - H22   
   457    472      1 ;     C9 - H14   
   457    473      1 ;     C9 - H15   
   458    474      1 ;    C10 - H16   
   458    475      1 ;    C10 - H17   
   459    462      1 ;     H1 - H4    
   459    463      1 ;     H1 - H5    
   460    462      1 ;     H2 - H4    
   460    463      1 ;     H2 - H5    
   461    462      1 ;     H3 - H4    
   461    463      1 ;     H3 - H5    
   462    464      1 ;     H4 - H6    
   462    465      1 ;     H4 - H7    
   463    464      1 ;     H5 - H6    
   463    465      1 ;     H5 - H7    
   464    466      1 ;     H6 - H8    
   464    467      1 ;     H6 - H9    
   465    466      1 ;     H7 - H8    
   465    467      1 ;     H7 - H9    
   466    468      1 ;     H8 - H10   
   466    469      1 ;     H8 - H11   
   467    468      1 ;     H9 - H10   
   467    469      1 ;     H9 - H11   
   468    470      1 ;    H10 - H12   
   468    471      1 ;    H10 - H13   
   469    470      1 ;    H11 - H12   
   469    471      1 ;    H11 - H13   
   470    472      1 ;    H12 - H14   
   470    473      1 ;    H12 - H15   
   471    472      1 ;    H13 - H14   
   471    473      1 ;    H13 - H15   
   472    474      1 ;    H14 - H16   
   472    475      1 ;    H14 - H17   
   473    474      1 ;    H15 - H16   
   473    475      1 ;    H15 - H17   
   474    476      1 ;    H16 - H18   
   474    477      1 ;    H16 - H19   
   475    476      1 ;    H17 - H18   
   475    477      1 ;    H17 - H19   
   476    478      1 ;    H18 - H20   
   476    479      1 ;    H18 - H21   
   476    480      1 ;    H18 - H22   
   477    478      1 ;    H19 - H20   
   477    479      1 ;    H19 - H21   
   477    480      1 ;    H19 - H22   
   481    484      1 ;     C1 - C4    
   481    496      1 ;     C1 - H6    
   481    497      1 ;     C1 - H7    
   482    485      1 ;     C2 - C5    
   482    498      1 ;     C2 - H8    
   482    499      1 ;     C2 - H9    
   483    486      1 ;     C3 - C6    
   483    491      1 ;     C3 - H1    
   483    492      1 ;     C3 - H2    
   483    493      1 ;     C3 - H3    
   483    500      1 ;     C3 - H10   
   483    501      1 ;     C3 - H11   
   484    487      1 ;     C4 - C7    
   484    494      1 ;     C4 - H4    
   484    495      1 ;     C4 - H5    
   484    502      1 ;     C4 - H12   
   484    503      1 ;     C4 - H13   
   485    488      1 ;     C5 - C8    
   485    496      1 ;     C5 - H6    
   485    497      1 ;     C5 - H7    
   485    504      1 ;     C5 - H14   
   485    505      1 ;     C5 - H15   
   486    489      1 ;     C6 - C9    
   486    498      1 ;     C6 - H8    
   486    499      1 ;     C6 - H9    
   486    506      1 ;     C6 - H16   
   486    507      1 ;     C6 - H17   
   487    490      1 ;     C7 - C10   
   487    500      1 ;     C7 - H10   
   487    501      1 ;     C7 - H11   
   487    508      1 ;     C7 - H18   
   487    509      1 ;     C7 - H19   
   488    502      1 ;     C8 - H12   
   488    503      1 ;     C8 - H13   
   488    510      1 ;     C8 - H20   
   488    511      1 ;     C8 - H21   
   488    512      1 ;     C8 - H22   
   489    504      1 ;     C9 - H14   
   489    505      1 ;     C9 - H15   
   490    506      1 ;    C10 - H16   
   490    507      1 ;    C10 - H17   
   491    494      1 ;     H1 - H4    
   491    495      1 ;     H1 - H5    
   492    494      1 ;     H2 - H4    
   492    495      1 ;     H2 - H5    
   493    494      1 ;     H3 - H4    
   493    495      1 ;     H3 - H5    
   494    496      1 ;     H4 - H6    
   494    497      1 ;     H4 - H7    
   495    496      1 ;     H5 - H6    
   495    497      1 ;     H5 - H7    
   496    498      1 ;     H6 - H8    
   496    499      1 ;     H6 - H9    
   497    498      1 ;     H7 - H8    
   497    499      1 ;     H7 - H9    
   498    500      1 ;     H8 - H10   
   498    501      1 ;     H8 - H11   
   499    500      1 ;     H9 - H10   
   499    501      1 ;     H9 - H11   
   500    502      1 ;    H10 - H12   
   500    503      1 ;    H10 - H13   
   501    502      1 ;    H11 - H12   
   501    503      1 ;    H11 - H13   
   502    504      1 ;    H12 - H14   
   502    505      1 ;    H12 - H15   
   503    504      1 ;    H13 - H14   
   503    505      1 ;    H13 - H15   
   504    506      1 ;    H14 - H16   
   504    507      1 ;    H14 - H17   
   505    506      1 ;    H15 - H16   
   505    507      1 ;    H15 - H17   
   506    508      1 ;    H16 - H18   
   506    509      1 ;    H16 - H19   
   507    508      1 ;    H17 - H18   
   507    509      1 ;    H17 - H19   
   508    510      1 ;    H18 - H20   
   508    511      1 ;    H18 - H21   
   508    512      1 ;    H18 - H22   
   509    510      1 ;    H19 - H20   
   509    511      1 ;    H19 - H21   
   509    512      1 ;    H19 - H22   
   513    516      1 ;     C1 - C4    
   513    528      1 ;     C1 - H6    
   513    529      1 ;     C1 - H7    
   514    517      1 ;     C2 - C5    
   514    530      1 ;     C2 - H8    
   514    531      1 ;     C2 - H9    
   515    518      1 ;     C3 - C6    
   515    523      1 ;     C3 - H1    
   515    524      1 ;     C3 - H2    
   515    525      1 ;     C3 - H3    
   515    532      1 ;     C3 - H10   
   515    533      1 ;     C3 - H11   
   516    519      1 ;     C4 - C7    
   516    526      1 ;     C4 - H4    
   516    527      1 ;     C4 - H5    
   516    534      1 ;     C4 - H12   
   516    535      1 ;     C4 - H13   
   517    520      1 ;     C5 - C8    
   517    528      1 ;     C5 - H6    
   517    529      1 ;     C5 - H7    
   517    536      1 ;     C5 - H14   
   517    537      1 ;     C5 - H15   
   518    521      1 ;     C6 - C9    
   518    530      1 ;     C6 - H8    
   518    531      1 ;     C6 - H9    
   518    538      1 ;     C6 - H16   
   518    539      1 ;     C6 - H17   
   519    522      1 ;     C7 - C10   
   519    532      1 ;     C7 - H10   
   519    533      1 ;     C7 - H11   
   519    540      1 ;     C7 - H18   
   519    541      1 ;     C7 - H19   
   520    534      1 ;     C8 - H12   
   520    535      1 ;     C8 - H13   
   520    542      1 ;     C8 - H20   
   520    543      1 ;     C8 - H21   
   520    544      1 ;     C8 - H22   
   521    536      1 ;     C9 - H14   
   521    537      1 ;     C9 - H15   
   522    538      1 ;    C10 - H16   
   522    539      1 ;    C10 - H17   
   523    526      1 ;     H1 - H4    
   523    527      1 ;     H1 - H5    
   524    526      1 ;     H2 - H4    
   524    527      1 ;     H2 - H5    
   525    526      1 ;     H3 - H4    
   525    527      1 ;     H3 - H5    
   526    528      1 ;     H4 - H6    
   526    529      1 ;     H4 - H7    
   527    528      1 ;     H5 - H6    
   527    529      1 ;     H5 - H7    
   528    530      1 ;     H6 - H8    
   528    531      1 ;     H6 - H9    
   529    530      1 ;     H7 - H8    
   529    531      1 ;     H7 - H9    
   530    532      1 ;     H8 - H10   
   530    533      1 ;     H8 - H11   
   531    532      1 ;     H9 - H10   
   531    533      1 ;     H9 - H11   
   532    534      1 ;    H10 - H12   
   532    535      1 ;    H10 - H13   
   533    534      1 ;    H11 - H12   
   533    535      1 ;    H11 - H13   
   534    536      1 ;    H12 - H14   
   534    537      1 ;    H12 - H15   
   535    536      1 ;    H13 - H14   
   535    537      1 ;    H13 - H15   
   536    538      1 ;    H14 - H16   
   536    539      1 ;    H14 - H17   
   537    538      1 ;    H15 - H16   
   537    539      1 ;    H15 - H17   
   538    540      1 ;    H16 - H18   
   538    541      1 ;    H16 - H19   
   539    540      1 ;    H17 - H18   
   539    541      1 ;    H17 - H19   
   540    542      1 ;    H18 - H20   
   540    543      1 ;    H18 - H21   
   540    544      1 ;    H18 - H22   
   541    542      1 ;    H19 - H20   
   541    543      1 ;    H19 - H21   
   541    544      1 ;    H19 - H22   
   545    548      1 ;     C1 - C4    
   545    560      1 ;     C1 - H6    
   545    561      1 ;     C1 - H7    
   546    549      1 ;     C2 - C5    
   546    562      1 ;     C2 - H8    
   546    563      1 ;     C2 - H9    
   547    550      1 ;     C3 - C6    
   547    555      1 ;     C3 - H1    
   547    556      1 ;     C3 - H2    
   547    557      1 ;     C3 - H3    
   547    564      1 ;     C3 - H10   
   547    565      1 ;     C3 - H11   
   548    551      1 ;     C4 - C7    
   548    558      1 ;     C4 - H4    
   548    559      1 ;     C4 - H5    
   548    566      1 ;     C4 - H12   
   548    567      1 ;     C4 - H13   
   549    552      1 ;     C5 - C8    
   549    560      1 ;     C5 - H6    
   549    561      1 ;     C5 - H7    
   549    568      1 ;     C5 - H14   
   549    569      1 ;     C5 - H15   
   550    553      1 ;     C6 - C9    
   550    562      1 ;     C6 - H8    
   550    563      1 ;     C6 - H9    
   550    570      1 ;     C6 - H16   
   550    571      1 ;     C6 - H17   
   551    554      1 ;     C7 - C10   
   551    564      1 ;     C7 - H10   
   551    565      1 ;     C7 - H11   
   551    572      1 ;     C7 - H18   
   551    573      1 ;     C7 - H19   
   552    566      1 ;     C8 - H12   
   552    567      1 ;     C8 - H13   
   552    574      1 ;     C8 - H20   
   552    575      1 ;     C8 - H21   
   552    576      1 ;     C8 - H22   
   553    568      1 ;     C9 - H14   
   553    569      1 ;     C9 - H15   
   554    570      1 ;    C10 - H16   
   554    571      1 ;    C10 - H17   
   555    558      1 ;     H1 - H4    
   555    559      1 ;     H1 - H5    
   556    558      1 ;     H2 - H4    
   556    559      1 ;     H2 - H5    
   557    558      1 ;     H3 - H4    
   557    559      1 ;     H3 - H5    
   558    560      1 ;     H4 - H6    
   558    561      1 ;     H4 - H7    
   559    560      1 ;     H5 - H6    
   559    561      1 ;     H5 - H7    
   560    562      1 ;     H6 - H8    
   560    563      1 ;     H6 - H9    
   561    562      1 ;     H7 - H8    
   561    563      1 ;     H7 - H9    
   562    564      1 ;     H8 - H10   
   562    565      1 ;     H8 - H11   
   563    564      1 ;     H9 - H10   
   563    565      1 ;     H9 - H11   
   564    566      1 ;    H10 - H12   
   564    567      1 ;    H10 - H13   
   565    566      1 ;    H11 - H12   
   565    567      1 ;    H11 - H13   
   566    568      1 ;    H12 - H14   
   566    569      1 ;    H12 - H15   
   567    568      1 ;    H13 - H14   
   567    569      1 ;    H13 - H15   
   568    570      1 ;    H14 - H16   
   568    571      1 ;    H14 - H17   
   569    570      1 ;    H15 - H16   
   569    571      1 ;    H15 - H17   
   570    572      1 ;    H16 - H18   
   570    573      1 ;    H16 - H19   
   571    572      1 ;    H17 - H18   
   571    573      1 ;    H17 - H19   
   572    574      1 ;    H18 - H20   
   572    575      1 ;    H18 - H21   
   572    576      1 ;    H18 - H22   
   573    574      1 ;    H19 - H20   
   573    575      1 ;    H19 - H21   
   573    576      1 ;    H19 - H22   
   577    580      1 ;     C1 - C4    
   577    592      1 ;     C1 - H6    
   577    593      1 ;     C1 - H7    
   578    581      1 ;     C2 - C5    
   578    594      1 ;     C2 - H8    
   578    595      1 ;     C2 - H9    
   579    582      1 ;     C3 - C6    
   579    587      1 ;     C3 - H1    
   579    588      1 ;     C3 - H2    
   579    589      1 ;     C3 - H3    
   579    596      1 ;     C3 - H10   
   579    597      1 ;     C3 - H11   
   580    583      1 ;     C4 - C7    
   580    590      1 ;     C4 - H4    
   580    591      1 ;     C4 - H5    
   580    598      1 ;     C4 - H12   
   580    599      1 ;     C4 - H13   
   581    584      1 ;     C5 - C8    
   581    592      1 ;     C5 - H6    
   581    593      1 ;     C5 - H7    
   581    600      1 ;     C5 - H14   
   581    601      1 ;     C5 - H15   
   582    585      1 ;     C6 - C9    
   582    594      1 ;     C6 - H8    
   582    595      1 ;     C6 - H9    
   582    602      1 ;     C6 - H16   
   582    603      1 ;     C6 - H17   
   583    586      1 ;     C7 - C10   
   583    596      1 ;     C7 - H10   
   583    597      1 ;     C7 - H11   
   583    604      1 ;     C7 - H18   
   583    605      1 ;     C7 - H19   
   584    598      1 ;     C8 - H12   
   584    599      1 ;     C8 - H13   
   584    606      1 ;     C8 - H20   
   584    607      1 ;     C8 - H21   
   584    608      1 ;     C8 - H22   
   585    600      1 ;     C9 - H14   
   585    601      1 ;     C9 - H15   
   586    602      1 ;    C10 - H16   
   586    603      1 ;    C10 - H17   
   587    590      1 ;     H1 - H4    
   587    591      1 ;     H1 - H5    
   588    590      1 ;     H2 - H4    
   588    591      1 ;     H2 - H5    
   589    590      1 ;     H3 - H4    
   589    591      1 ;     H3 - H5    
   590    592      1 ;     H4 - H6    
   590    593      1 ;     H4 - H7    
   591    592      1 ;     H5 - H6    
   591    593      1 ;     H5 - H7    
   592    594      1 ;     H6 - H8    
   592    595      1 ;     H6 - H9    
   593    594      1 ;     H7 - H8    
   593    595      1 ;     H7 - H9    
   594    596      1 ;     H8 - H10   
   594    597      1 ;     H8 - H11   
   595    596      1 ;     H9 - H10   
   595    597      1 ;     H9 - H11   
   596    598      1 ;    H10 - H12   
   596    599      1 ;    H10 - H13   
   597    598      1 ;    H11 - H12   
   597    599      1 ;    H11 - H13   
   598    600      1 ;    H12 - H14   
   598    601      1 ;    H12 - H15   
   599    600      1 ;    H13 - H14   
   599    601      1 ;    H13 - H15   
   600    602      1 ;    H14 - H16   
   600    603      1 ;    H14 - H17   
   601    602      1 ;    H15 - H16   
   601    603      1 ;    H15 - H17   
   602    604      1 ;    H16 - H18   
   602    605      1 ;    H16 - H19   
   603    604      1 ;    H17 - H18   
   603    605      1 ;    H17 - H19   
   604    606      1 ;    H18 - H20   
   604    607      1 ;    H18 - H21   
   604    608      1 ;    H18 - H22   
   605    606      1 ;    H19 - H20   
   605    607      1 ;    H19 - H21   
   605    608      1 ;    H19 - H22   
   609    612      1 ;     C1 - C4    
   609    624      1 ;     C1 - H6    
   609    625      1 ;     C1 - H7    
   610    613      1 ;     C2 - C5    
   610    626      1 ;     C2 - H8    
   610    627      1 ;     C2 - H9    
   611    614      1 ;     C3 - C6    
   611    619      1 ;     C3 - H1    
   611    620      1 ;     C3 - H2    
   611    621      1 ;     C3 - H3    
   611    628      1 ;     C3 - H10   
   611    629      1 ;     C3 - H11   
   612    615      1 ;     C4 - C7    
   612    622      1 ;     C4 - H4    
   612    623      1 ;     C4 - H5    
   612    630      1 ;     C4 - H12   
   612    631      1 ;     C4 - H13   
   613    616      1 ;     C5 - C8    
   613    624      1 ;     C5 - H6    
   613    625      1 ;     C5 - H7    
   613    632      1 ;     C5 - H14   
   613    633      1 ;     C5 - H15   
   614    617      1 ;     C6 - C9    
   614    626      1 ;     C6 - H8    
   614    627      1 ;     C6 - H9    
   614    634      1 ;     C6 - H16   
   614    635      1 ;     C6 - H17   
   615    618      1 ;     C7 - C10   
   615    628      1 ;     C7 - H10   
   615    629      1 ;     C7 - H11   
   615    636      1 ;     C7 - H18   
   615    637      1 ;     C7 - H19   
   616    630      1 ;     C8 - H12   
   616    631      1 ;     C8 - H13   
   616    638      1 ;     C8 - H20   
   616    639      1 ;     C8 - H21   
   616    640      1 ;     C8 - H22   
   617    632      1 ;     C9 - H14   
   617    633      1 ;     C9 - H15   
   618    634      1 ;    C10 - H16   
   618    635      1 ;    C10 - H17   
   619    622      1 ;     H1 - H4    
   619    623      1 ;     H1 - H5    
   620    622      1 ;     H2 - H4    
   620    623      1 ;     H2 - H5    
   621    622      1 ;     H3 - H4    
   621    623      1 ;     H3 - H5    
   622    624      1 ;     H4 - H6    
   622    625      1 ;     H4 - H7    
   623    624      1 ;     H5 - H6    
   623    625      1 ;     H5 - H7    
   624    626      1 ;     H6 - H8    
   624    627      1 ;     H6 - H9    
   625    626      1 ;     H7 - H8    
   625    627      1 ;     H7 - H9    
   626    628      1 ;     H8 - H10   
   626    629      1 ;     H8 - H11   
   627    628      1 ;     H9 - H10   
   627    629      1 ;     H9 - H11   
   628    630      1 ;    H10 - H12   
   628    631      1 ;    H10 - H13   
   629    630      1 ;    H11 - H12   
   629    631      1 ;    H11 - H13   
   630    632      1 ;    H12 - H14   
   630    633      1 ;    H12 - H15   
   631    632      1 ;    H13 - H14   
   631    633      1 ;    H13 - H15   
   632    634      1 ;    H14 - H16   
   632    635      1 ;    H14 - H17   
   633    634      1 ;    H15 - H16   
   633    635      1 ;    H15 - H17   
   634    636      1 ;    H16 - H18   
   634    637      1 ;    H16 - H19   
   635    636      1 ;    H17 - H18   
   635    637      1 ;    H17 - H19   
   636    638      1 ;    H18 - H20   
   636    639      1 ;    H18 - H21   
   636    640      1 ;    H18 - H22   
   637    638      1 ;    H19 - H20   
   637    639      1 ;    H19 - H21   
   637    640      1 ;    H19 - H22   

[ angles ]
;   ai     aj     ak    funct   theta         cth
     1      2      3      1    1.1263e+02    5.0099e+02 ;     C1 - C2     - C3    
     1      2     14      1    1.0968e+02    3.6208e+02 ;     C1 - C2     - H4    
     1      2     15      1    1.0968e+02    3.6208e+02 ;     C1 - C2     - H5    
     2      1     11      1    1.0968e+02    3.6208e+02 ;     C2 - C1     - H1    
     2      1     12      1    1.0968e+02    3.6208e+02 ;     C2 - C1     - H2    
     2      1     13      1    1.0968e+02    3.6208e+02 ;     C2 - C1     - H3    
     2      3      4      1    1.1263e+02    5.0099e+02 ;     C2 - C3     - C4    
     2      3     16      1    1.0968e+02    3.6208e+02 ;     C2 - C3     - H6    
     2      3     17      1    1.0968e+02    3.6208e+02 ;     C2 - C3     - H7    
     3      2     14      1    1.0968e+02    3.6208e+02 ;     C3 - C2     - H4    
     3      2     15      1    1.0968e+02    3.6208e+02 ;     C3 - C2     - H5    
     3      4      5      1    1.1263e+02    5.0099e+02 ;     C3 - C4     - C5    
     3      4     18      1    1.0968e+02    3.6208e+02 ;     C3 - C4     - H8    
     3      4     19      1    1.0968e+02    3.6208e+02 ;     C3 - C4     - H9    
     4      3     16      1    1.0968e+02    3.6208e+02 ;     C4 - C3     - H6    
     4      3     17      1    1.0968e+02    3.6208e+02 ;     C4 - C3     - H7    
     4      5      6      1    1.1263e+02    5.0099e+02 ;     C4 - C5     - C6    
     4      5     20      1    1.0968e+02    3.6208e+02 ;     C4 - C5     - H10   
     4      5     21      1    1.0968e+02    3.6208e+02 ;     C4 - C5     - H11   
     5      4     18      1    1.0968e+02    3.6208e+02 ;     C5 - C4     - H8    
     5      4     19      1    1.0968e+02    3.6208e+02 ;     C5 - C4     - H9    
     5      6      7      1    1.1263e+02    5.0099e+02 ;     C5 - C6     - C7    
     5      6     22      1    1.0968e+02    3.6208e+02 ;     C5 - C6     - H12   
     5      6     23      1    1.0968e+02    3.6208e+02 ;     C5 - C6     - H13   
     6      5     20      1    1.0968e+02    3.6208e+02 ;     C6 - C5     - H10   
     6      5     21      1    1.0968e+02    3.6208e+02 ;     C6 - C5     - H11   
     6      7      8      1    1.1263e+02    5.0099e+02 ;     C6 - C7     - C8    
     6      7     24      1    1.0968e+02    3.6208e+02 ;     C6 - C7     - H14   
     6      7     25      1    1.0968e+02    3.6208e+02 ;     C6 - C7     - H15   
     7      6     22      1    1.0968e+02    3.6208e+02 ;     C7 - C6     - H12   
     7      6     23      1    1.0968e+02    3.6208e+02 ;     C7 - C6     - H13   
     7      8      9      1    1.1263e+02    5.0099e+02 ;     C7 - C8     - C9    
     7      8     26      1    1.0968e+02    3.6208e+02 ;     C7 - C8     - H16   
     7      8     27      1    1.0968e+02    3.6208e+02 ;     C7 - C8     - H17   
     8      7     24      1    1.0968e+02    3.6208e+02 ;     C8 - C7     - H14   
     8      7     25      1    1.0968e+02    3.6208e+02 ;     C8 - C7     - H15   
     8      9     10      1    1.1263e+02    5.0099e+02 ;     C8 - C9     - C10   
     8      9     28      1    1.0968e+02    3.6208e+02 ;     C8 - C9     - H18   
     8      9     29      1    1.0968e+02    3.6208e+02 ;     C8 - C9     - H19   
     9      8     26      1    1.0968e+02    3.6208e+02 ;     C9 - C8     - H16   
     9      8     27      1    1.0968e+02    3.6208e+02 ;     C9 - C8     - H17   
     9     10     30      1    1.0968e+02    3.6208e+02 ;     C9 - C10    - H20   
     9     10     31      1    1.0968e+02    3.6208e+02 ;     C9 - C10    - H21   
     9     10     32      1    1.0968e+02    3.6208e+02 ;     C9 - C10    - H22   
    10      9     28      1    1.0968e+02    3.6208e+02 ;    C10 - C9     - H18   
    10      9     29      1    1.0968e+02    3.6208e+02 ;    C10 - C9     - H19   
    11      1     12      1    1.0773e+02    2.9957e+02 ;     H1 - C1     - H2    
    11      1     13      1    1.0773e+02    2.9957e+02 ;     H1 - C1     - H3    
    12      1     13      1    1.0773e+02    2.9957e+02 ;     H2 - C1     - H3    
    14      2     15      1    1.0773e+02    2.9957e+02 ;     H4 - C2     - H5    
    16      3     17      1    1.0773e+02    2.9957e+02 ;     H6 - C3     - H7    
    18      4     19      1    1.0773e+02    2.9957e+02 ;     H8 - C4     - H9    
    20      5     21      1    1.0773e+02    2.9957e+02 ;    H10 - C5     - H11   
    22      6     23      1    1.0773e+02    2.9957e+02 ;    H12 - C6     - H13   
    24      7     25      1    1.0773e+02    2.9957e+02 ;    H14 - C7     - H15   
    26      8     27      1    1.0773e+02    2.9957e+02 ;    H16 - C8     - H17   
    28      9     29      1    1.0773e+02    2.9957e+02 ;    H18 - C9     - H19   
    30     10     31      1    1.0773e+02    2.9957e+02 ;    H20 - C10    - H21   
    30     10     32      1    1.0773e+02    2.9957e+02 ;    H20 - C10    - H22   
    31     10     32      1    1.0773e+02    2.9957e+02 ;    H21 - C10    - H22   
    33     34     35      1    1.1263e+02    5.0099e+02 ;     C1 - C2     - C3    
    33     34     46      1    1.0968e+02    3.6208e+02 ;     C1 - C2     - H4    
    33     34     47      1    1.0968e+02    3.6208e+02 ;     C1 - C2     - H5    
    34     33     43      1    1.0968e+02    3.6208e+02 ;     C2 - C1     - H1    
    34     33     44      1    1.0968e+02    3.6208e+02 ;     C2 - C1     - H2    
    34     33     45      1    1.0968e+02    3.6208e+02 ;     C2 - C1     - H3    
    34     35     36      1    1.1263e+02    5.0099e+02 ;     C2 - C3     - C4    
    34     35     48      1    1.0968e+02    3.6208e+02 ;     C2 - C3     - H6    
    34     35     49      1    1.0968e+02    3.6208e+02 ;     C2 - C3     - H7    
    35     34     46      1    1.0968e+02    3.6208e+02 ;     C3 - C2     - H4    
    35     34     47      1    1.0968e+02    3.6208e+02 ;     C3 - C2     - H5    
    35     36     37      1    1.1263e+02    5.0099e+02 ;     C3 - C4     - C5    
    35     36     50      1    1.0968e+02    3.6208e+02 ;     C3 - C4     - H8    
    35     36     51      1    1.0968e+02    3.6208e+02 ;     C3 - C4     - H9    
    36     35     48      1    1.0968e+02    3.6208e+02 ;     C4 - C3     - H6    
    36     35     49      1    1.0968e+02    3.6208e+02 ;     C4 - C3     - H7    
    36     37     38      1    1.1263e+02    5.0099e+02 ;     C4 - C5     - C6    
    36     37     52      1    1.0968e+02    3.6208e+02 ;     C4 - C5     - H10   
    36     37     53      1    1.0968e+02    3.6208e+02 ;     C4 - C5     - H11   
    37     36     50      1    1.0968e+02    3.6208e+02 ;     C5 - C4     - H8    
    37     36     51      1    1.0968e+02    3.6208e+02 ;     C5 - C4     - H9    
    37     38     39      1    1.1263e+02    5.0099e+02 ;     C5 - C6     - C7    
    37     38     54      1    1.0968e+02    3.6208e+02 ;     C5 - C6     - H12   
    37     38     55      1    1.0968e+02    3.6208e+02 ;     C5 - C6     - H13   
    38     37     52      1    1.0968e+02    3.6208e+02 ;     C6 - C5     - H10   
    38     37     53      1    1.0968e+02    3.6208e+02 ;     C6 - C5     - H11   
    38     39     40      1    1.1263e+02    5.0099e+02 ;     C6 - C7     - C8    
    38     39     56      1    1.0968e+02    3.6208e+02 ;     C6 - C7     - H14   
    38     39     57      1    1.0968e+02    3.6208e+02 ;     C6 - C7     - H15   
    39     38     54      1    1.0968e+02    3.6208e+02 ;     C7 - C6     - H12   
    39     38     55      1    1.0968e+02    3.6208e+02 ;     C7 - C6     - H13   
    39     40     41      1    1.1263e+02    5.0099e+02 ;     C7 - C8     - C9    
    39     40     58      1    1.0968e+02    3.6208e+02 ;     C7 - C8     - H16   
    39     40     59      1    1.0968e+02    3.6208e+02 ;     C7 - C8     - H17   
    40     39     56      1    1.0968e+02    3.6208e+02 ;     C8 - C7     - H14   
    40     39     57      1    1.0968e+02    3.6208e+02 ;     C8 - C7     - H15   
    40     41     42      1    1.1263e+02    5.0099e+02 ;     C8 - C9     - C10   
    40     41     60      1    1.0968e+02    3.6208e+02 ;     C8 - C9     - H18   
    40     41     61      1    1.0968e+02    3.6208e+02 ;     C8 - C9     - H19   
    41     40     58      1    1.0968e+02    3.6208e+02 ;     C9 - C8     - H16   
    41     40     59      1    1.0968e+02    3.6208e+02 ;     C9 - C8     - H17   
    41     42     62      1    1.0968e+02    3.6208e+02 ;     C9 - C10    - H20   
    41     42     63      1    1.0968e+02    3.6208e+02 ;     C9 - C10    - H21   
    41     42     64      1    1.0968e+02    3.6208e+02 ;     C9 - C10    - H22   
    42     41     60      1    1.0968e+02    3.6208e+02 ;    C10 - C9     - H18   
    42     41     61      1    1.0968e+02    3.6208e+02 ;    C10 - C9     - H19   
    43     33     44      1    1.0773e+02    2.9957e+02 ;     H1 - C1     - H2    
    43     33     45      1    1.0773e+02    2.9957e+02 ;     H1 - C1     - H3    
    44     33     45      1    1.0773e+02    2.9957e+02 ;     H2 - C1     - H3    
    46     34     47      1    1.0773e+02    2.9957e+02 ;     H4 - C2     - H5    
    48     35     49      1    1.0773e+02    2.9957e+02 ;     H6 - C3     - H7    
    50     36     51      1    1.0773e+02    2.9957e+02 ;     H8 - C4     - H9    
    52     37     53      1    1.0773e+02    2.9957e+02 ;    H10 - C5     - H11   
    54     38     55      1    1.0773e+02    2.9957e+02 ;    H12 - C6     - H13   
    56     39     57      1    1.0773e+02    2.9957e+02 ;    H14 - C7     - H15   
    58     40     59      1    1.0773e+02    2.9957e+02 ;    H16 - C8     - H17   
    60     41     61      1    1.0773e+02    2.9957e+02 ;    H18 - C9     - H19   
    62     42     63      1    1.0773e+02    2.9957e+02 ;    H20 - C10    - H21   
    62     42     64      1    1.0773e+02    2.9957e+02 ;    H20 - C10    - H22   
    63     42     64      1    1.0773e+02    2.9957e+02 ;    H21 - C10    - H22   
    65     66     67      1    1.1263e+02    5.0099e+02 ;     C1 - C2     - C3    
    65     66     78      1    1.0968e+02    3.6208e+02 ;     C1 - C2     - H4    
    65     66     79      1    1.0968e+02    3.6208e+02 ;     C1 - C2     - H5    
    66     65     75      1    1.0968e+02    3.6208e+02 ;     C2 - C1     - H1    
    66     65     76      1    1.0968e+02    3.6208e+02 ;     C2 - C1     - H2    
    66     65     77      1    1.0968e+02    3.6208e+02 ;     C2 - C1     - H3    
    66     67     68      1    1.1263e+02    5.0099e+02 ;     C2 - C3     - C4    
    66     67     80      1    1.0968e+02    3.6208e+02 ;     C2 - C3     - H6    
    66     67     81      1    1.0968e+02    3.6208e+02 ;     C2 - C3     - H7    
    67     66     78      1    1.0968e+02    3.6208e+02 ;     C3 - C2     - H4    
    67     66     79      1    1.0968e+02    3.6208e+02 ;     C3 - C2     - H5    
    67     68     69      1    1.1263e+02    5.0099e+02 ;     C3 - C4     - C5    
    67     68     82      1    1.0968e+02    3.6208e+02 ;     C3 - C4     - H8    
    67     68     83      1    1.0968e+02    3.6208e+02 ;     C3 - C4     - H9    
    68     67     80      1    1.0968e+02    3.6208e+02 ;     C4 - C3     - H6    
    68     67     81      1    1.0968e+02    3.6208e+02 ;     C4 - C3     - H7    
    68     69     70      1    1.1263e+02    5.0099e+02 ;     C4 - C5     - C6    
    68     69     84      1    1.0968e+02    3.6208e+02 ;     C4 - C5     - H10   
    68     69     85      1    1.0968e+02    3.6208e+02 ;     C4 - C5     - H11   
    69     68     82      1    1.0968e+02    3.6208e+02 ;     C5 - C4     - H8    
    69     68     83      1    1.0968e+02    3.6208e+02 ;     C5 - C4     - H9    
    69     70     71      1    1.1263e+02    5.0099e+02 ;     C5 - C6     - C7    
    69     70     86      1    1.0968e+02    3.6208e+02 ;     C5 - C6     - H12   
    69     70     87      1    1.0968e+02    3.6208e+02 ;     C5 - C6     - H13   
    70     69     84      1    1.0968e+02    3.6208e+02 ;     C6 - C5     - H10   
    70     69     85      1    1.0968e+02    3.6208e+02 ;     C6 - C5     - H11   
    70     71     72      1    1.1263e+02    5.0099e+02 ;     C6 - C7     - C8    
    70     71     88      1    1.0968e+02    3.6208e+02 ;     C6 - C7     - H14   
    70     71     89      1    1.0968e+02    3.6208e+02 ;     C6 - C7     - H15   
    71     70     86      1    1.0968e+02    3.6208e+02 ;     C7 - C6     - H12   
    71     70     87      1    1.0968e+02    3.6208e+02 ;     C7 - C6     - H13   
    71     72     73      1    1.1263e+02    5.0099e+02 ;     C7 - C8     - C9    
    71     72     90      1    1.0968e+02    3.6208e+02 ;     C7 - C8     - H16   
    71     72     91      1    1.0968e+02    3.6208e+02 ;     C7 - C8     - H17   
    72     71     88      1    1.0968e+02    3.6208e+02 ;     C8 - C7     - H14   
    72     71     89      1    1.0968e+02    3.6208e+02 ;     C8 - C7     - H15   
    72     73     74      1    1.1263e+02    5.0099e+02 ;     C8 - C9     - C10   
    72     73     92      1    1.0968e+02    3.6208e+02 ;     C8 - C9     - H18   
    72     73     93      1    1.0968e+02    3.6208e+02 ;     C8 - C9     - H19   
    73     72     90      1    1.0968e+02    3.6208e+02 ;     C9 - C8     - H16   
    73     72     91      1    1.0968e+02    3.6208e+02 ;     C9 - C8     - H17   
    73     74     94      1    1.0968e+02    3.6208e+02 ;     C9 - C10    - H20   
    73     74     95      1    1.0968e+02    3.6208e+02 ;     C9 - C10    - H21   
    73     74     96      1    1.0968e+02    3.6208e+02 ;     C9 - C10    - H22   
    74     73     92      1    1.0968e+02    3.6208e+02 ;    C10 - C9     - H18   
    74     73     93      1    1.0968e+02    3.6208e+02 ;    C10 - C9     - H19   
    75     65     76      1    1.0773e+02    2.9957e+02 ;     H1 - C1     - H2    
    75     65     77      1    1.0773e+02    2.9957e+02 ;     H1 - C1     - H3    
    76     65     77      1    1.0773e+02    2.9957e+02 ;     H2 - C1     - H3    
    78     66     79      1    1.0773e+02    2.9957e+02 ;     H4 - C2     - H5    
    80     67     81      1    1.0773e+02    2.9957e+02 ;     H6 - C3     - H7    
    82     68     83      1    1.0773e+02    2.9957e+02 ;     H8 - C4     - H9    
    84     69     85      1    1.0773e+02    2.9957e+02 ;    H10 - C5     - H11   
    86     70     87      1    1.0773e+02    2.9957e+02 ;    H12 - C6     - H13   
    88     71     89      1    1.0773e+02    2.9957e+02 ;    H14 - C7     - H15   
    90     72     91      1    1.0773e+02    2.9957e+02 ;    H16 - C8     - H17   
    92     73     93      1    1.0773e+02    2.9957e+02 ;    H18 - C9     - H19   
    94     74     95      1    1.0773e+02    2.9957e+02 ;    H20 - C10    - H21   
    94     74     96      1    1.0773e+02    2.9957e+02 ;    H20 - C10    - H22   
    95     74     96      1    1.0773e+02    2.9957e+02 ;    H21 - C10    - H22   
    97     98     99      1    1.1263e+02    5.0099e+02 ;     C1 - C2     - C3    
    97     98    110      1    1.0968e+02    3.6208e+02 ;     C1 - C2     - H4    
    97     98    111      1    1.0968e+02    3.6208e+02 ;     C1 - C2     - H5    
    98     97    107      1    1.0968e+02    3.6208e+02 ;     C2 - C1     - H1    
    98     97    108      1    1.0968e+02    3.6208e+02 ;     C2 - C1     - H2    
    98     97    109      1    1.0968e+02    3.6208e+02 ;     C2 - C1     - H3    
    98     99    100      1    1.1263e+02    5.0099e+02 ;     C2 - C3     - C4    
    98     99    112      1    1.0968e+02    3.6208e+02 ;     C2 - C3     - H6    
    98     99    113      1    1.0968e+02    3.6208e+02 ;     C2 - C3     - H7    
    99     98    110      1    1.0968e+02    3.6208e+02 ;     C3 - C2     - H4    
    99     98    111      1    1.0968e+02    3.6208e+02 ;     C3 - C2     - H5    
    99    100    101      1    1.1263e+02    5.0099e+02 ;     C3 - C4     - C5    
    99    100    114      1    1.0968e+02    3.6208e+02 ;     C3 - C4     - H8    
    99    100    115      1    1.0968e+02    3.6208e+02 ;     C3 - C4     - H9    
   100     99    112      1    1.0968e+02    3.6208e+02 ;     C4 - C3     - H6    
   100     99    113      1    1.0968e+02    3.6208e+02 ;     C4 - C3     - H7    
   100    101    102      1    1.1263e+02    5.0099e+02 ;     C4 - C5     - C6    
   100    101    116      1    1.0968e+02    3.6208e+02 ;     C4 - C5     - H10   
   100    101    117      1    1.0968e+02    3.6208e+02 ;     C4 - C5     - H11   
   101    100    114      1    1.0968e+02    3.6208e+02 ;     C5 - C4     - H8    
   101    100    115      1    1.0968e+02    3.6208e+02 ;     C5 - C4     - H9    
   101    102    103      1    1.1263e+02    5.0099e+02 ;     C5 - C6     - C7    
   101    102    118      1    1.0968e+02    3.6208e+02 ;     C5 - C6     - H12   
   101    102    119      1    1.0968e+02    3.6208e+02 ;     C5 - C6     - H13   
   102    101    116      1    1.0968e+02    3.6208e+02 ;     C6 - C5     - H10   
   102    101    117      1    1.0968e+02    3.6208e+02 ;     C6 - C5     - H11   
   102    103    104      1    1.1263e+02    5.0099e+02 ;     C6 - C7     - C8    
   102    103    120      1    1.0968e+02    3.6208e+02 ;     C6 - C7     - H14   
   102    103    121      1    1.0968e+02    3.6208e+02 ;     C6 - C7     - H15   
   103    102    118      1    1.0968e+02    3.6208e+02 ;     C7 - C6     - H12   
   103    102    119      1    1.0968e+02    3.6208e+02 ;     C7 - C6     - H13   
   103    104    105      1    1.1263e+02    5.0099e+02 ;     C7 - C8     - C9    
   103    104    122      1    1.0968e+02    3.6208e+02 ;     C7 - C8     - H16   
   103    104    123      1    1.0968e+02    3.6208e+02 ;     C7 - C8     - H17   
   104    103    120      1    1.0968e+02    3.6208e+02 ;     C8 - C7     - H14   
   104    103    121      1    1.0968e+02    3.6208e+02 ;     C8 - C7     - H15   
   104    105    106      1    1.1263e+02    5.0099e+02 ;     C8 - C9     - C10   
   104    105    124      1    1.0968e+02    3.6208e+02 ;     C8 - C9     - H18   
   104    105    125      1    1.0968e+02    3.6208e+02 ;     C8 - C9     - H19   
   105    104    122      1    1.0968e+02    3.6208e+02 ;     C9 - C8     - H16   
   105    104    123      1    1.0968e+02    3.6208e+02 ;     C9 - C8     - H17   
   105    106    126      1    1.0968e+02    3.6208e+02 ;     C9 - C10    - H20   
   105    106    127      1    1.0968e+02    3.6208e+02 ;     C9 - C10    - H21   
   105    106    128      1    1.0968e+02    3.6208e+02 ;     C9 - C10    - H22   
   106    105    124      1    1.0968e+02    3.6208e+02 ;    C10 - C9     - H18   
   106    105    125      1    1.0968e+02    3.6208e+02 ;    C10 - C9     - H19   
   107     97    108      1    1.0773e+02    2.9957e+02 ;     H1 - C1     - H2    
   107     97    109      1    1.0773e+02    2.9957e+02 ;     H1 - C1     - H3    
   108     97    109      1    1.0773e+02    2.9957e+02 ;     H2 - C1     - H3    
   110     98    111      1    1.0773e+02    2.9957e+02 ;     H4 - C2     - H5    
   112     99    113      1    1.0773e+02    2.9957e+02 ;     H6 - C3     - H7    
   114    100    115      1    1.0773e+02    2.9957e+02 ;     H8 - C4     - H9    
   116    101    117      1    1.0773e+02    2.9957e+02 ;    H10 - C5     - H11   
   118    102    119      1    1.0773e+02    2.9957e+02 ;    H12 - C6     - H13   
   120    103    121      1    1.0773e+02    2.9957e+02 ;    H14 - C7     - H15   
   122    104    123      1    1.0773e+02    2.9957e+02 ;    H16 - C8     - H17   
   124    105    125      1    1.0773e+02    2.9957e+02 ;    H18 - C9     - H19   
   126    106    127      1    1.0773e+02    2.9957e+02 ;    H20 - C10    - H21   
   126    106    128      1    1.0773e+02    2.9957e+02 ;    H20 - C10    - H22   
   127    106    128      1    1.0773e+02    2.9957e+02 ;    H21 - C10    - H22   
   129    130    131      1    1.1263e+02    5.0099e+02 ;     C1 - C2     - C3    
   129    130    142      1    1.0968e+02    3.6208e+02 ;     C1 - C2     - H4    
   129    130    143      1    1.0968e+02    3.6208e+02 ;     C1 - C2     - H5    
   130    129    139      1    1.0968e+02    3.6208e+02 ;     C2 - C1     - H1    
   130    129    140      1    1.0968e+02    3.6208e+02 ;     C2 - C1     - H2    
   130    129    141      1    1.0968e+02    3.6208e+02 ;     C2 - C1     - H3    
   130    131    132      1    1.1263e+02    5.0099e+02 ;     C2 - C3     - C4    
   130    131    144      1    1.0968e+02    3.6208e+02 ;     C2 - C3     - H6    
   130    131    145      1    1.0968e+02    3.6208e+02 ;     C2 - C3     - H7    
   131    130    142      1    1.0968e+02    3.6208e+02 ;     C3 - C2     - H4    
   131    130    143      1    1.0968e+02    3.6208e+02 ;     C3 - C2     - H5    
   131    132    133      1    1.1263e+02    5.0099e+02 ;     C3 - C4     - C5    
   131    132    146      1    1.0968e+02    3.6208e+02 ;     C3 - C4     - H8    
   131    132    147      1    1.0968e+02    3.6208e+02 ;     C3 - C4     - H9    
   132    131    144      1    1.0968e+02    3.6208e+02 ;     C4 - C3     - H6    
   132    131    145      1    1.0968e+02    3.6208e+02 ;     C4 - C3     - H7    
   132    133    134      1    1.1263e+02    5.0099e+02 ;     C4 - C5     - C6    
   132    133    148      1    1.0968e+02    3.6208e+02 ;     C4 - C5     - H10   
   132    133    149      1    1.0968e+02    3.6208e+02 ;     C4 - C5     - H11   
   133    132    146      1    1.0968e+02    3.6208e+02 ;     C5 - C4     - H8    
   133    132    147      1    1.0968e+02    3.6208e+02 ;     C5 - C4     - H9    
   133    134    135      1    1.1263e+02    5.0099e+02 ;     C5 - C6     - C7    
   133    134    150      1    1.0968e+02    3.6208e+02 ;     C5 - C6     - H12   
   133    134    151      1    1.0968e+02    3.6208e+02 ;     C5 - C6     - H13   
   134    133    148      1    1.0968e+02    3.6208e+02 ;     C6 - C5     - H10   
   134    133    149      1    1.0968e+02    3.6208e+02 ;     C6 - C5     - H11   
   134    135    136      1    1.1263e+02    5.0099e+02 ;     C6 - C7     - C8    
   134    135    152      1    1.0968e+02    3.6208e+02 ;     C6 - C7     - H14   
   134    135    153      1    1.0968e+02    3.6208e+02 ;     C6 - C7     - H15   
   135    134    150      1    1.0968e+02    3.6208e+02 ;     C7 - C6     - H12   
   135    134    151      1    1.0968e+02    3.6208e+02 ;     C7 - C6     - H13   
   135    136    137      1    1.1263e+02    5.0099e+02 ;     C7 - C8     - C9    
   135    136    154      1    1.0968e+02    3.6208e+02 ;     C7 - C8     - H16   
   135    136    155      1    1.0968e+02    3.6208e+02 ;     C7 - C8     - H17   
   136    135    152      1    1.0968e+02    3.6208e+02 ;     C8 - C7     - H14   
   136    135    153      1    1.0968e+02    3.6208e+02 ;     C8 - C7     - H15   
   136    137    138      1    1.1263e+02    5.0099e+02 ;     C8 - C9     - C10   
   136    137    156      1    1.0968e+02    3.6208e+02 ;     C8 - C9     - H18   
   136    137    157      1    1.0968e+02    3.6208e+02 ;     C8 - C9     - H19   
   137    136    154      1    1.0968e+02    3.6208e+02 ;     C9 - C8     - H16   
   137    136    155      1    1.0968e+02    3.6208e+02 ;     C9 - C8     - H17   
   137    138    158      1    1.0968e+02    3.6208e+02 ;     C9 - C10    - H20   
   137    138    159      1    1.0968e+02    3.6208e+02 ;     C9 - C10    - H21   
   137    138    160      1    1.0968e+02    3.6208e+02 ;     C9 - C10    - H22   
   138    137    156      1    1.0968e+02    3.6208e+02 ;    C10 - C9     - H18   
   138    137    157      1    1.0968e+02    3.6208e+02 ;    C10 - C9     - H19   
   139    129    140      1    1.0773e+02    2.9957e+02 ;     H1 - C1     - H2    
   139    129    141      1    1.0773e+02    2.9957e+02 ;     H1 - C1     - H3    
   140    129    141      1    1.0773e+02    2.9957e+02 ;     H2 - C1     - H3    
   142    130    143      1    1.0773e+02    2.9957e+02 ;     H4 - C2     - H5    
   144    131    145      1    1.0773e+02    2.9957e+02 ;     H6 - C3     - H7    
   146    132    147      1    1.0773e+02    2.9957e+02 ;     H8 - C4     - H9    
   148    133    149      1    1.0773e+02    2.9957e+02 ;    H10 - C5     - H11   
   150    134    151      1    1.0773e+02    2.9957e+02 ;    H12 - C6     - H13   
   152    135    153      1    1.0773e+02    2.9957e+02 ;    H14 - C7     - H15   
   154    136    155      1    1.0773e+02    2.9957e+02 ;    H16 - C8     - H17   
   156    137    157      1    1.0773e+02    2.9957e+02 ;    H18 - C9     - H19   
   158    138    159      1    1.0773e+02    2.9957e+02 ;    H20 - C10    - H21   
   158    138    160      1    1.0773e+02    2.9957e+02 ;    H20 - C10    - H22   
   159    138    160      1    1.0773e+02    2.9957e+02 ;    H21 - C10    - H22   
   161    162    163      1    1.1263e+02    5.0099e+02 ;     C1 - C2     - C3    
   161    162    174      1    1.0968e+02    3.6208e+02 ;     C1 - C2     - H4    
   161    162    175      1    1.0968e+02    3.6208e+02 ;     C1 - C2     - H5    
   162    161    171      1    1.0968e+02    3.6208e+02 ;     C2 - C1     - H1    
   162    161    172      1    1.0968e+02    3.6208e+02 ;     C2 - C1     - H2    
   162    161    173      1    1.0968e+02    3.6208e+02 ;     C2 - C1     - H3    
   162    163    164      1    1.1263e+02    5.0099e+02 ;     C2 - C3     - C4    
   162    163    176      1    1.0968e+02    3.6208e+02 ;     C2 - C3     - H6    
   162    163    177      1    1.0968e+02    3.6208e+02 ;     C2 - C3     - H7    
   163    162    174      1    1.0968e+02    3.6208e+02 ;     C3 - C2     - H4    
   163    162    175      1    1.0968e+02    3.6208e+02 ;     C3 - C2     - H5    
   163    164    165      1    1.1263e+02    5.0099e+02 ;     C3 - C4     - C5    
   163    164    178      1    1.0968e+02    3.6208e+02 ;     C3 - C4     - H8    
   163    164    179      1    1.0968e+02    3.6208e+02 ;     C3 - C4     - H9    
   164    163    176      1    1.0968e+02    3.6208e+02 ;     C4 - C3     - H6    
   164    163    177      1    1.0968e+02    3.6208e+02 ;     C4 - C3     - H7    
   164    165    166      1    1.1263e+02    5.0099e+02 ;     C4 - C5     - C6    
   164    165    180      1    1.0968e+02    3.6208e+02 ;     C4 - C5     - H10   
   164    165    181      1    1.0968e+02    3.6208e+02 ;     C4 - C5     - H11   
   165    164    178      1    1.0968e+02    3.6208e+02 ;     C5 - C4     - H8    
   165    164    179      1    1.0968e+02    3.6208e+02 ;     C5 - C4     - H9    
   165    166    167      1    1.1263e+02    5.0099e+02 ;     C5 - C6     - C7    
   165    166    182      1    1.0968e+02    3.6208e+02 ;     C5 - C6     - H12   
   165    166    183      1    1.0968e+02    3.6208e+02 ;     C5 - C6     - H13   
   166    165    180      1    1.0968e+02    3.6208e+02 ;     C6 - C5     - H10   
   166    165    181      1    1.0968e+02    3.6208e+02 ;     C6 - C5     - H11   
   166    167    168      1    1.1263e+02    5.0099e+02 ;     C6 - C7     - C8    
   166    167    184      1    1.0968e+02    3.6208e+02 ;     C6 - C7     - H14   
   166    167    185      1    1.0968e+02    3.6208e+02 ;     C6 - C7     - H15   
   167    166    182      1    1.0968e+02    3.6208e+02 ;     C7 - C6     - H12   
   167    166    183      1    1.0968e+02    3.6208e+02 ;     C7 - C6     - H13   
   167    168    169      1    1.1263e+02    5.0099e+02 ;     C7 - C8     - C9    
   167    168    186      1    1.0968e+02    3.6208e+02 ;     C7 - C8     - H16   
   167    168    187      1    1.0968e+02    3.6208e+02 ;     C7 - C8     - H17   
   168    167    184      1    1.0968e+02    3.6208e+02 ;     C8 - C7     - H14   
   168    167    185      1    1.0968e+02    3.6208e+02 ;     C8 - C7     - H15   
   168    169    170      1    1.1263e+02    5.0099e+02 ;     C8 - C9     - C10   
   168    169    188      1    1.0968e+02    3.6208e+02 ;     C8 - C9     - H18   
   168    169    189      1    1.0968e+02    3.6208e+02 ;     C8 - C9     - H19   
   169    168    186      1    1.0968e+02    3.6208e+02 ;     C9 - C8     - H16   
   169    168    187      1    1.0968e+02    3.6208e+02 ;     C9 - C8     - H17   
   169    170    190      1    1.0968e+02    3.6208e+02 ;     C9 - C10    - H20   
   169    170    191      1    1.0968e+02    3.6208e+02 ;     C9 - C10    - H21   
   169    170    192      1    1.0968e+02    3.6208e+02 ;     C9 - C10    - H22   
   170    169    188      1    1.0968e+02    3.6208e+02 ;    C10 - C9     - H18   
   170    169    189      1    1.0968e+02    3.6208e+02 ;    C10 - C9     - H19   
   171    161    172      1    1.0773e+02    2.9957e+02 ;     H1 - C1     - H2    
   171    161    173      1    1.0773e+02    2.9957e+02 ;     H1 - C1     - H3    
   172    161    173      1    1.0773e+02    2.9957e+02 ;     H2 - C1     - H3    
   174    162    175      1    1.0773e+02    2.9957e+02 ;     H4 - C2     - H5    
   176    163    177      1    1.0773e+02    2.9957e+02 ;     H6 - C3     - H7    
   178    164    179      1    1.0773e+02    2.9957e+02 ;     H8 - C4     - H9    
   180    165    181      1    1.0773e+02    2.9957e+02 ;    H10 - C5     - H11   
   182    166    183      1    1.0773e+02    2.9957e+02 ;    H12 - C6     - H13   
   184    167    185      1    1.0773e+02    2.9957e+02 ;    H14 - C7     - H15   
   186    168    187      1    1.0773e+02    2.9957e+02 ;    H16 - C8     - H17   
   188    169    189      1    1.0773e+02    2.9957e+02 ;    H18 - C9     - H19   
   190    170    191      1    1.0773e+02    2.9957e+02 ;    H20 - C10    - H21   
   190    170    192      1    1.0773e+02    2.9957e+02 ;    H20 - C10    - H22   
   191    170    192      1    1.0773e+02    2.9957e+02 ;    H21 - C10    - H22   
   193    194    195      1    1.1263e+02    5.0099e+02 ;     C1 - C2     - C3    
   193    194    206      1    1.0968e+02    3.6208e+02 ;     C1 - C2     - H4    
   193    194    207      1    1.0968e+02    3.6208e+02 ;     C1 - C2     - H5    
   194    193    203      1    1.0968e+02    3.6208e+02 ;     C2 - C1     - H1    
   194    193    204      1    1.0968e+02    3.6208e+02 ;     C2 - C1     - H2    
   194    193    205      1    1.0968e+02    3.6208e+02 ;     C2 - C1     - H3    
   194    195    196      1    1.1263e+02    5.0099e+02 ;     C2 - C3     - C4    
   194    195    208      1    1.0968e+02    3.6208e+02 ;     C2 - C3     - H6    
   194    195    209      1    1.0968e+02    3.6208e+02 ;     C2 - C3     - H7    
   195    194    206      1    1.0968e+02    3.6208e+02 ;     C3 - C2     - H4    
   195    194    207      1    1.0968e+02    3.6208e+02 ;     C3 - C2     - H5    
   195    196    197      1    1.1263e+02    5.0099e+02 ;     C3 - C4     - C5    
   195    196    210      1    1.0968e+02    3.6208e+02 ;     C3 - C4     - H8    
   195    196    211      1    1.0968e+02    3.6208e+02 ;     C3 - C4     - H9    
   196    195    208      1    1.0968e+02    3.6208e+02 ;     C4 - C3     - H6    
   196    195    209      1    1.0968e+02    3.6208e+02 ;     C4 - C3     - H7    
   196    197    198      1    1.1263e+02    5.0099e+02 ;     C4 - C5     - C6    
   196    197    212      1    1.0968e+02    3.6208e+02 ;     C4 - C5     - H10   
   196    197    213      1    1.0968e+02    3.6208e+02 ;     C4 - C5     - H11   
   197    196    210      1    1.0968e+02    3.6208e+02 ;     C5 - C4     - H8    
   197    196    211      1    1.0968e+02    3.6208e+02 ;     C5 - C4     - H9    
   197    198    199      1    1.1263e+02    5.0099e+02 ;     C5 - C6     - C7    
   197    198    214      1    1.0968e+02    3.6208e+02 ;     C5 - C6     - H12   
   197    198    215      1    1.0968e+02    3.6208e+02 ;     C5 - C6     - H13   
   198    197    212      1    1.0968e+02    3.6208e+02 ;     C6 - C5     - H10   
   198    197    213      1    1.0968e+02    3.6208e+02 ;     C6 - C5     - H11   
   198    199    200      1    1.1263e+02    5.0099e+02 ;     C6 - C7     - C8    
   198    199    216      1    1.0968e+02    3.6208e+02 ;     C6 - C7     - H14   
   198    199    217      1    1.0968e+02    3.6208e+02 ;     C6 - C7     - H15   
   199    198    214      1    1.0968e+02    3.6208e+02 ;     C7 - C6     - H12   
   199    198    215      1    1.0968e+02    3.6208e+02 ;     C7 - C6     - H13   
   199    200    201      1    1.1263e+02    5.0099e+02 ;     C7 - C8     - C9    
   199    200    218      1    1.0968e+02    3.6208e+02 ;     C7 - C8     - H16   
   199    200    219      1    1.0968e+02    3.6208e+02 ;     C7 - C8     - H17   
   200    199    216      1    1.0968e+02    3.6208e+02 ;     C8 - C7     - H14   
   200    199    217      1    1.0968e+02    3.6208e+02 ;     C8 - C7     - H15   
   200    201    202      1    1.1263e+02    5.0099e+02 ;     C8 - C9     - C10   
   200    201    220      1    1.0968e+02    3.6208e+02 ;     C8 - C9     - H18   
   200    201    221      1    1.0968e+02    3.6208e+02 ;     C8 - C9     - H19   
   201    200    218      1    1.0968e+02    3.6208e+02 ;     C9 - C8     - H16   
   201    200    219      1    1.0968e+02    3.6208e+02 ;     C9 - C8     - H17   
   201    202    222      1    1.0968e+02    3.6208e+02 ;     C9 - C10    - H20   
   201    202    223      1    1.0968e+02    3.6208e+02 ;     C9 - C10    - H21   
   201    202    224      1    1.0968e+02    3.6208e+02 ;     C9 - C10    - H22   
   202    201    220      1    1.0968e+02    3.6208e+02 ;    C10 - C9     - H18   
   202    201    221      1    1.0968e+02    3.6208e+02 ;    C10 - C9     - H19   
   203    193    204      1    1.0773e+02    2.9957e+02 ;     H1 - C1     - H2    
   203    193    205      1    1.0773e+02    2.9957e+02 ;     H1 - C1     - H3    
   204    193    205      1    1.0773e+02    2.9957e+02 ;     H2 - C1     - H3    
   206    194    207      1    1.0773e+02    2.9957e+02 ;     H4 - C2     - H5    
   208    195    209      1    1.0773e+02    2.9957e+02 ;     H6 - C3     - H7    
   210    196    211      1    1.0773e+02    2.9957e+02 ;     H8 - C4     - H9    
   212    197    213      1    1.0773e+02    2.9957e+02 ;    H10 - C5     - H11   
   214    198    215      1    1.0773e+02    2.9957e+02 ;    H12 - C6     - H13   
   216    199    217      1    1.0773e+02    2.9957e+02 ;    H14 - C7     - H15   
   218    200    219      1    1.0773e+02    2.9957e+02 ;    H16 - C8     - H17   
   220    201    221      1    1.0773e+02    2.9957e+02 ;    H18 - C9     - H19   
   222    202    223      1    1.0773e+02    2.9957e+02 ;    H20 - C10    - H21   
   222    202    224      1    1.0773e+02    2.9957e+02 ;    H20 - C10    - H22   
   223    202    224      1    1.0773e+02    2.9957e+02 ;    H21 - C10    - H22   
   225    226    227      1    1.1263e+02    5.0099e+02 ;     C1 - C2     - C3    
   225    226    238      1    1.0968e+02    3.6208e+02 ;     C1 - C2     - H4    
   225    226    239      1    1.0968e+02    3.6208e+02 ;     C1 - C2     - H5    
   226    225    235      1    1.0968e+02    3.6208e+02 ;     C2 - C1     - H1    
   226    225    236      1    1.0968e+02    3.6208e+02 ;     C2 - C1     - H2    
   226    225    237      1    1.0968e+02    3.6208e+02 ;     C2 - C1     - H3    
   226    227    228      1    1.1263e+02    5.0099e+02 ;     C2 - C3     - C4    
   226    227    240      1    1.0968e+02    3.6208e+02 ;     C2 - C3     - H6    
   226    227    241      1    1.0968e+02    3.6208e+02 ;     C2 - C3     - H7    
   227    226    238      1    1.0968e+02    3.6208e+02 ;     C3 - C2     - H4    
   227    226    239      1    1.0968e+02    3.6208e+02 ;     C3 - C2     - H5    
   227    228    229      1    1.1263e+02    5.0099e+02 ;     C3 - C4     - C5    
   227    228    242      1    1.0968e+02    3.6208e+02 ;     C3 - C4     - H8    
   227    228    243      1    1.0968e+02    3.6208e+02 ;     C3 - C4     - H9    
   228    227    240      1    1.0968e+02    3.6208e+02 ;     C4 - C3     - H6    
   228    227    241      1    1.0968e+02    3.6208e+02 ;     C4 - C3     - H7    
   228    229    230      1    1.1263e+02    5.0099e+02 ;     C4 - C5     - C6    
   228    229    244      1    1.0968e+02    3.6208e+02 ;     C4 - C5     - H10   
   228    229    245      1    1.0968e+02    3.6208e+02 ;     C4 - C5     - H11   
   229    228    242      1    1.0968e+02    3.6208e+02 ;     C5 - C4     - H8    
   229    228    243      1    1.0968e+02    3.6208e+02 ;     C5 - C4     - H9    
   229    230    231      1    1.1263e+02    5.0099e+02 ;     C5 - C6     - C7    
   229    230    246      1    1.0968e+02    3.6208e+02 ;     C5 - C6     - H12   
   229    230    247      1    1.0968e+02    3.6208e+02 ;     C5 - C6     - H13   
   230    229    244      1    1.0968e+02    3.6208e+02 ;     C6 - C5     - H10   
   230    229    245      1    1.0968e+02    3.6208e+02 ;     C6 - C5     - H11   
   230    231    232      1    1.1263e+02    5.0099e+02 ;     C6 - C7     - C8    
   230    231    248      1    1.0968e+02    3.6208e+02 ;     C6 - C7     - H14   
   230    231    249      1    1.0968e+02    3.6208e+02 ;     C6 - C7     - H15   
   231    230    246      1    1.0968e+02    3.6208e+02 ;     C7 - C6     - H12   
   231    230    247      1    1.0968e+02    3.6208e+02 ;     C7 - C6     - H13   
   231    232    233      1    1.1263e+02    5.0099e+02 ;     C7 - C8     - C9    
   231    232    250      1    1.0968e+02    3.6208e+02 ;     C7 - C8     - H16   
   231    232    251      1    1.0968e+02    3.6208e+02 ;     C7 - C8     - H17   
   232    231    248      1    1.0968e+02    3.6208e+02 ;     C8 - C7     - H14   
   232    231    249      1    1.0968e+02    3.6208e+02 ;     C8 - C7     - H15   
   232    233    234      1    1.1263e+02    5.0099e+02 ;     C8 - C9     - C10   
   232    233    252      1    1.0968e+02    3.6208e+02 ;     C8 - C9     - H18   
   232    233    253      1    1.0968e+02    3.6208e+02 ;     C8 - C9     - H19   
   233    232    250      1    1.0968e+02    3.6208e+02 ;     C9 - C8     - H16   
   233    232    251      1    1.0968e+02    3.6208e+02 ;     C9 - C8     - H17   
   233    234    254      1    1.0968e+02    3.6208e+02 ;     C9 - C10    - H20   
   233    234    255      1    1.0968e+02    3.6208e+02 ;     C9 - C10    - H21   
   233    234    256      1    1.0968e+02    3.6208e+02 ;     C9 - C10    - H22   
   234    233    252      1    1.0968e+02    3.6208e+02 ;    C10 - C9     - H18   
   234    233    253      1    1.0968e+02    3.6208e+02 ;    C10 - C9     - H19   
   235    225    236      1    1.0773e+02    2.9957e+02 ;     H1 - C1     - H2    
   235    225    237      1    1.0773e+02    2.9957e+02 ;     H1 - C1     - H3    
   236    225    237      1    1.0773e+02    2.9957e+02 ;     H2 - C1     - H3    
   238    226    239      1    1.0773e+02    2.9957e+02 ;     H4 - C2     - H5    
   240    227    241      1    1.0773e+02    2.9957e+02 ;     H6 - C3     - H7    
   242    228    243      1    1.0773e+02    2.9957e+02 ;     H8 - C4     - H9    
   244    229    245      1    1.0773e+02    2.9957e+02 ;    H10 - C5     - H11   
   246    230    247      1    1.0773e+02    2.9957e+02 ;    H12 - C6     - H13   
   248    231    249      1    1.0773e+02    2.9957e+02 ;    H14 - C7     - H15   
   250    232    251      1    1.0773e+02    2.9957e+02 ;    H16 - C8     - H17   
   252    233    253      1    1.0773e+02    2.9957e+02 ;    H18 - C9     - H19   
   254    234    255      1    1.0773e+02    2.9957e+02 ;    H20 - C10    - H21   
   254    234    256      1    1.0773e+02    2.9957e+02 ;    H20 - C10    - H22   
   255    234    256      1    1.0773e+02    2.9957e+02 ;    H21 - C10    - H22   
   257    258    259      1    1.1263e+02    5.0099e+02 ;     C1 - C2     - C3    
   257    258    270      1    1.0968e+02    3.6208e+02 ;     C1 - C2     - H4    
   257    258    271      1    1.0968e+02    3.6208e+02 ;     C1 - C2     - H5    
   258    257    267      1    1.0968e+02    3.6208e+02 ;     C2 - C1     - H1    
   258    257    268      1    1.0968e+02    3.6208e+02 ;     C2 - C1     - H2    
   258    257    269      1    1.0968e+02    3.6208e+02 ;     C2 - C1     - H3    
   258    259    260      1    1.1263e+02    5.0099e+02 ;     C2 - C3     - C4    
   258    259    272      1    1.0968e+02    3.6208e+02 ;     C2 - C3     - H6    
   258    259    273      1    1.0968e+02    3.6208e+02 ;     C2 - C3     - H7    
   259    258    270      1    1.0968e+02    3.6208e+02 ;     C3 - C2     - H4    
   259    258    271      1    1.0968e+02    3.6208e+02 ;     C3 - C2     - H5    
   259    260    261      1    1.1263e+02    5.0099e+02 ;     C3 - C4     - C5    
   259    260    274      1    1.0968e+02    3.6208e+02 ;     C3 - C4     - H8    
   259    260    275      1    1.0968e+02    3.6208e+02 ;     C3 - C4     - H9    
   260    259    272      1    1.0968e+02    3.6208e+02 ;     C4 - C3     - H6    
   260    259    273      1    1.0968e+02    3.6208e+02 ;     C4 - C3     - H7    
   260    261    262      1    1.1263e+02    5.0099e+02 ;     C4 - C5     - C6    
   260    261    276      1    1.0968e+02    3.6208e+02 ;     C4 - C5     - H10   
   260    261    277      1    1.0968e+02    3.6208e+02 ;     C4 - C5     - H11   
   261    260    274      1    1.0968e+02    3.6208e+02 ;     C5 - C4     - H8    
   261    260    275      1    1.0968e+02    3.6208e+02 ;     C5 - C4     - H9    
   261    262    263      1    1.1263e+02    5.0099e+02 ;     C5 - C6     - C7    
   261    262    278      1    1.0968e+02    3.6208e+02 ;     C5 - C6     - H12   
   261    262    279      1    1.0968e+02    3.6208e+02 ;     C5 - C6     - H13   
   262    261    276      1    1.0968e+02    3.6208e+02 ;     C6 - C5     - H10   
   262    261    277      1    1.0968e+02    3.6208e+02 ;     C6 - C5     - H11   
   262    263    264      1    1.1263e+02    5.0099e+02 ;     C6 - C7     - C8    
   262    263    280      1    1.0968e+02    3.6208e+02 ;     C6 - C7     - H14   
   262    263    281      1    1.0968e+02    3.6208e+02 ;     C6 - C7     - H15   
   263    262    278      1    1.0968e+02    3.6208e+02 ;     C7 - C6     - H12   
   263    262    279      1    1.0968e+02    3.6208e+02 ;     C7 - C6     - H13   
   263    264    265      1    1.1263e+02    5.0099e+02 ;     C7 - C8     - C9    
   263    264    282      1    1.0968e+02    3.6208e+02 ;     C7 - C8     - H16   
   263    264    283      1    1.0968e+02    3.6208e+02 ;     C7 - C8     - H17   
   264    263    280      1    1.0968e+02    3.6208e+02 ;     C8 - C7     - H14   
   264    263    281      1    1.0968e+02    3.6208e+02 ;     C8 - C7     - H15   
   264    265    266      1    1.1263e+02    5.0099e+02 ;     C8 - C9     - C10   
   264    265    284      1    1.0968e+02    3.6208e+02 ;     C8 - C9     - H18   
   264    265    285      1    1.0968e+02    3.6208e+02 ;     C8 - C9     - H19   
   265    264    282      1    1.0968e+02    3.6208e+02 ;     C9 - C8     - H16   
   265    264    283      1    1.0968e+02    3.6208e+02 ;     C9 - C8     - H17   
   265    266    286      1    1.0968e+02    3.6208e+02 ;     C9 - C10    - H20   
   265    266    287      1    1.0968e+02    3.6208e+02 ;     C9 - C10    - H21   
   265    266    288      1    1.0968e+02    3.6208e+02 ;     C9 - C10    - H22   
   266    265    284      1    1.0968e+02    3.6208e+02 ;    C10 - C9     - H18   
   266    265    285      1    1.0968e+02    3.6208e+02 ;    C10 - C9     - H19   
   267    257    268      1    1.0773e+02    2.9957e+02 ;     H1 - C1     - H2    
   267    257    269      1    1.0773e+02    2.9957e+02 ;     H1 - C1     - H3    
   268    257    269      1    1.0773e+02    2.9957e+02 ;     H2 - C1     - H3    
   270    258    271      1    1.0773e+02    2.9957e+02 ;     H4 - C2     - H5    
   272    259    273      1    1.0773e+02    2.9957e+02 ;     H6 - C3     - H7    
   274    260    275      1    1.0773e+02    2.9957e+02 ;     H8 - C4     - H9    
   276    261    277      1    1.0773e+02    2.9957e+02 ;    H10 - C5     - H11   
   278    262    279      1    1.0773e+02    2.9957e+02 ;    H12 - C6     - H13   
   280    263    281      1    1.0773e+02    2.9957e+02 ;    H14 - C7     - H15   
   282    264    283      1    1.0773e+02    2.9957e+02 ;    H16 - C8     - H17   
   284    265    285      1    1.0773e+02    2.9957e+02 ;    H18 - C9     - H19   
   286    266    287      1    1.0773e+02    2.9957e+02 ;    H20 - C10    - H21   
   286    266    288      1    1.0773e+02    2.9957e+02 ;    H20 - C10    - H22   
   287    266    288      1    1.0773e+02    2.9957e+02 ;    H21 - C10    - H22   
   289    290    291      1    1.1263e+02    5.0099e+02 ;     C1 - C2     - C3    
   289    290    302      1    1.0968e+02    3.6208e+02 ;     C1 - C2     - H4    
   289    290    303      1    1.0968e+02    3.6208e+02 ;     C1 - C2     - H5    
   290    289    299      1    1.0968e+02    3.6208e+02 ;     C2 - C1     - H1    
   290    289    300      1    1.0968e+02    3.6208e+02 ;     C2 - C1     - H2    
   290    289    301      1    1.0968e+02    3.6208e+02 ;     C2 - C1     - H3    
   290    291    292      1    1.1263e+02    5.0099e+02 ;     C2 - C3     - C4    
   290    291    304      1    1.0968e+02    3.6208e+02 ;     C2 - C3     - H6    
   290    291    305      1    1.0968e+02    3.6208e+02 ;     C2 - C3     - H7    
   291    290    302      1    1.0968e+02    3.6208e+02 ;     C3 - C2     - H4    
   291    290    303      1    1.0968e+02    3.6208e+02 ;     C3 - C2     - H5    
   291    292    293      1    1.1263e+02    5.0099e+02 ;     C3 - C4     - C5    
   291    292    306      1    1.0968e+02    3.6208e+02 ;     C3 - C4     - H8    
   291    292    307      1    1.0968e+02    3.6208e+02 ;     C3 - C4     - H9    
   292    291    304      1    1.0968e+02    3.6208e+02 ;     C4 - C3     - H6    
   292    291    305      1    1.0968e+02    3.6208e+02 ;     C4 - C3     - H7    
   292    293    294      1    1.1263e+02    5.0099e+02 ;     C4 - C5     - C6    
   292    293    308      1    1.0968e+02    3.6208e+02 ;     C4 - C5     - H10   
   292    293    309      1    1.0968e+02    3.6208e+02 ;     C4 - C5     - H11   
   293    292    306      1    1.0968e+02    3.6208e+02 ;     C5 - C4     - H8    
   293    292    307      1    1.0968e+02    3.6208e+02 ;     C5 - C4     - H9    
   293    294    295      1    1.1263e+02    5.0099e+02 ;     C5 - C6     - C7    
   293    294    310      1    1.0968e+02    3.6208e+02 ;     C5 - C6     - H12   
   293    294    311      1    1.0968e+02    3.6208e+02 ;     C5 - C6     - H13   
   294    293    308      1    1.0968e+02    3.6208e+02 ;     C6 - C5     - H10   
   294    293    309      1    1.0968e+02    3.6208e+02 ;     C6 - C5     - H11   
   294    295    296      1    1.1263e+02    5.0099e+02 ;     C6 - C7     - C8    
   294    295    312      1    1.0968e+02    3.6208e+02 ;     C6 - C7     - H14   
   294    295    313      1    1.0968e+02    3.6208e+02 ;     C6 - C7     - H15   
   295    294    310      1    1.0968e+02    3.6208e+02 ;     C7 - C6     - H12   
   295    294    311      1    1.0968e+02    3.6208e+02 ;     C7 - C6     - H13   
   295    296    297      1    1.1263e+02    5.0099e+02 ;     C7 - C8     - C9    
   295    296    314      1    1.0968e+02    3.6208e+02 ;     C7 - C8     - H16   
   295    296    315      1    1.0968e+02    3.6208e+02 ;     C7 - C8     - H17   
   296    295    312      1    1.0968e+02    3.6208e+02 ;     C8 - C7     - H14   
   296    295    313      1    1.0968e+02    3.6208e+02 ;     C8 - C7     - H15   
   296    297    298      1    1.1263e+02    5.0099e+02 ;     C8 - C9     - C10   
   296    297    316      1    1.0968e+02    3.6208e+02 ;     C8 - C9     - H18   
   296    297    317      1    1.0968e+02    3.6208e+02 ;     C8 - C9     - H19   
   297    296    314      1    1.0968e+02    3.6208e+02 ;     C9 - C8     - H16   
   297    296    315      1    1.0968e+02    3.6208e+02 ;     C9 - C8     - H17   
   297    298    318      1    1.0968e+02    3.6208e+02 ;     C9 - C10    - H20   
   297    298    319      1    1.0968e+02    3.6208e+02 ;     C9 - C10    - H21   
   297    298    320      1    1.0968e+02    3.6208e+02 ;     C9 - C10    - H22   
   298    297    316      1    1.0968e+02    3.6208e+02 ;    C10 - C9     - H18   
   298    297    317      1    1.0968e+02    3.6208e+02 ;    C10 - C9     - H19   
   299    289    300      1    1.0773e+02    2.9957e+02 ;     H1 - C1     - H2    
   299    289    301      1    1.0773e+02    2.9957e+02 ;     H1 - C1     - H3    
   300    289    301      1    1.0773e+02    2.9957e+02 ;     H2 - C1     - H3    
   302    290    303      1    1.0773e+02    2.9957e+02 ;     H4 - C2     - H5    
   304    291    305      1    1.0773e+02    2.9957e+02 ;     H6 - C3     - H7    
   306    292    307      1    1.0773e+02    2.9957e+02 ;     H8 - C4     - H9    
   308    293    309      1    1.0773e+02    2.9957e+02 ;    H10 - C5     - H11   
   310    294    311      1    1.0773e+02    2.9957e+02 ;    H12 - C6     - H13   
   312    295    313      1    1.0773e+02    2.9957e+02 ;    H14 - C7     - H15   
   314    296    315      1    1.0773e+02    2.9957e+02 ;    H16 - C8     - H17   
   316    297    317      1    1.0773e+02    2.9957e+02 ;    H18 - C9     - H19   
   318    298    319      1    1.0773e+02    2.9957e+02 ;    H20 - C10    - H21   
   318    298    320      1    1.0773e+02    2.9957e+02 ;    H20 - C10    - H22   
   319    298    320      1    1.0773e+02    2.9957e+02 ;    H21 - C10    - H22   
   321    322    323      1    1.1263e+02    5.0099e+02 ;     C1 - C2     - C3    
   321    322    334      1    1.0968e+02    3.6208e+02 ;     C1 - C2     - H4    
   321    322    335      1    1.0968e+02    3.6208e+02 ;     C1 - C2     - H5    
   322    321    331      1    1.0968e+02    3.6208e+02 ;     C2 - C1     - H1    
   322    321    332      1    1.0968e+02    3.6208e+02 ;     C2 - C1     - H2    
   322    321    333      1    1.0968e+02    3.6208e+02 ;     C2 - C1     - H3    
   322    323    324      1    1.1263e+02    5.0099e+02 ;     C2 - C3     - C4    
   322    323    336      1    1.0968e+02    3.6208e+02 ;     C2 - C3     - H6    
   322    323    337      1    1.0968e+02    3.6208e+02 ;     C2 - C3     - H7    
   323    322    334      1    1.0968e+02    3.6208e+02 ;     C3 - C2     - H4    
   323    322    335      1    1.0968e+02    3.6208e+02 ;     C3 - C2     - H5    
   323    324    325      1    1.1263e+02    5.0099e+02 ;     C3 - C4     - C5    
   323    324    338      1    1.0968e+02    3.6208e+02 ;     C3 - C4     - H8    
   323    324    339      1    1.0968e+02    3.6208e+02 ;     C3 - C4     - H9    
   324    323    336      1    1.0968e+02    3.6208e+02 ;     C4 - C3     - H6    
   324    323    337      1    1.0968e+02    3.6208e+02 ;     C4 - C3     - H7    
   324    325    326      1    1.1263e+02    5.0099e+02 ;     C4 - C5     - C6    
   324    325    340      1    1.0968e+02    3.6208e+02 ;     C4 - C5     - H10   
   324    325    341      1    1.0968e+02    3.6208e+02 ;     C4 - C5     - H11   
   325    324    338      1    1.0968e+02    3.6208e+02 ;     C5 - C4     - H8    
   325    324    339      1    1.0968e+02    3.6208e+02 ;     C5 - C4     - H9    
   325    326    327      1    1.1263e+02    5.0099e+02 ;     C5 - C6     - C7    
   325    326    342      1    1.0968e+02    3.6208e+02 ;     C5 - C6     - H12   
   325    326    343      1    1.0968e+02    3.6208e+02 ;     C5 - C6     - H13   
   326    325    340      1    1.0968e+02    3.6208e+02 ;     C6 - C5     - H10   
   326    325    341      1    1.0968e+02    3.6208e+02 ;     C6 - C5     - H11   
   326    327    328      1    1.1263e+02    5.0099e+02 ;     C6 - C7     - C8    
   326    327    344      1    1.0968e+02    3.6208e+02 ;     C6 - C7     - H14   
   326    327    345      1    1.0968e+02    3.6208e+02 ;     C6 - C7     - H15   
   327    326    342      1    1.0968e+02    3.6208e+02 ;     C7 - C6     - H12   
   327    326    343      1    1.0968e+02    3.6208e+02 ;     C7 - C6     - H13   
   327    328    329      1    1.1263e+02    5.0099e+02 ;     C7 - C8     - C9    
   327    328    346      1    1.0968e+02    3.6208e+02 ;     C7 - C8     - H16   
   327    328    347      1    1.0968e+02    3.6208e+02 ;     C7 - C8     - H17   
   328    327    344      1    1.0968e+02    3.6208e+02 ;     C8 - C7     - H14   
   328    327    345      1    1.0968e+02    3.6208e+02 ;     C8 - C7     - H15   
   328    329    330      1    1.1263e+02    5.0099e+02 ;     C8 - C9     - C10   
   328    329    348      1    1.0968e+02    3.6208e+02 ;     C8 - C9     - H18   
   328    329    349      1    1.0968e+02    3.6208e+02 ;     C8 - C9     - H19   
   329    328    346      1    1.0968e+02    3.6208e+02 ;     C9 - C8     - H16   
   329    328    347      1    1.0968e+02    3.6208e+02 ;     C9 - C8     - H17   
   329    330    350      1    1.0968e+02    3.6208e+02 ;     C9 - C10    - H20   
   329    330    351      1    1.0968e+02    3.6208e+02 ;     C9 - C10    - H21   
   329    330    352      1    1.0968e+02    3.6208e+02 ;     C9 - C10    - H22   
   330    329    348      1    1.0968e+02    3.6208e+02 ;    C10 - C9     - H18   
   330    329    349      1    1.0968e+02    3.6208e+02 ;    C10 - C9     - H19   
   331    321    332      1    1.0773e+02    2.9957e+02 ;     H1 - C1     - H2    
   331    321    333      1    1.0773e+02    2.9957e+02 ;     H1 - C1     - H3    
   332    321    333      1    1.0773e+02    2.9957e+02 ;     H2 - C1     - H3    
   334    322    335      1    1.0773e+02    2.9957e+02 ;     H4 - C2     - H5    
   336    323    337      1    1.0773e+02    2.9957e+02 ;     H6 - C3     - H7    
   338    324    339      1    1.0773e+02    2.9957e+02 ;     H8 - C4     - H9    
   340    325    341      1    1.0773e+02    2.9957e+02 ;    H10 - C5     - H11   
   342    326    343      1    1.0773e+02    2.9957e+02 ;    H12 - C6     - H13   
   344    327    345      1    1.0773e+02    2.9957e+02 ;    H14 - C7     - H15   
   346    328    347      1    1.0773e+02    2.9957e+02 ;    H16 - C8     - H17   
   348    329    349      1    1.0773e+02    2.9957e+02 ;    H18 - C9     - H19   
   350    330    351      1    1.0773e+02    2.9957e+02 ;    H20 - C10    - H21   
   350    330    352      1    1.0773e+02    2.9957e+02 ;    H20 - C10    - H22   
   351    330    352      1    1.0773e+02    2.9957e+02 ;    H21 - C10    - H22   
   353    354    355      1    1.1263e+02    5.0099e+02 ;     C1 - C2     - C3    
   353    354    366      1    1.0968e+02    3.6208e+02 ;     C1 - C2     - H4    
   353    354    367      1    1.0968e+02    3.6208e+02 ;     C1 - C2     - H5    
   354    353    363      1    1.0968e+02    3.6208e+02 ;     C2 - C1     - H1    
   354    353    364      1    1.0968e+02    3.6208e+02 ;     C2 - C1     - H2    
   354    353    365      1    1.0968e+02    3.6208e+02 ;     C2 - C1     - H3    
   354    355    356      1    1.1263e+02    5.0099e+02 ;     C2 - C3     - C4    
   354    355    368      1    1.0968e+02    3.6208e+02 ;     C2 - C3     - H6    
   354    355    369      1    1.0968e+02    3.6208e+02 ;     C2 - C3     - H7    
   355    354    366      1    1.0968e+02    3.6208e+02 ;     C3 - C2     - H4    
   355    354    367      1    1.0968e+02    3.6208e+02 ;     C3 - C2     - H5    
   355    356    357      1    1.1263e+02    5.0099e+02 ;     C3 - C4     - C5    
   355    356    370      1    1.0968e+02    3.6208e+02 ;     C3 - C4     - H8    
   355    356    371      1    1.0968e+02    3.6208e+02 ;     C3 - C4     - H9    
   356    355    368      1    1.0968e+02    3.6208e+02 ;     C4 - C3     - H6    
   356    355    369      1    1.0968e+02    3.6208e+02 ;     C4 - C3     - H7    
   356    357    358      1    1.1263e+02    5.0099e+02 ;     C4 - C5     - C6    
   356    357    372      1    1.0968e+02    3.6208e+02 ;     C4 - C5     - H10   
   356    357    373      1    1.0968e+02    3.6208e+02 ;     C4 - C5     - H11   
   357    356    370      1    1.0968e+02    3.6208e+02 ;     C5 - C4     - H8    
   357    356    371      1    1.0968e+02    3.6208e+02 ;     C5 - C4     - H9    
   357    358    359      1    1.1263e+02    5.0099e+02 ;     C5 - C6     - C7    
   357    358    374      1    1.0968e+02    3.6208e+02 ;     C5 - C6     - H12   
   357    358    375      1    1.0968e+02    3.6208e+02 ;     C5 - C6     - H13   
   358    357    372      1    1.0968e+02    3.6208e+02 ;     C6 - C5     - H10   
   358    357    373      1    1.0968e+02    3.6208e+02 ;     C6 - C5     - H11   
   358    359    360      1    1.1263e+02    5.0099e+02 ;     C6 - C7     - C8    
   358    359    376      1    1.0968e+02    3.6208e+02 ;     C6 - C7     - H14   
   358    359    377      1    1.0968e+02    3.6208e+02 ;     C6 - C7     - H15   
   359    358    374      1    1.0968e+02    3.6208e+02 ;     C7 - C6     - H12   
   359    358    375      1    1.0968e+02    3.6208e+02 ;     C7 - C6     - H13   
   359    360    361      1    1.1263e+02    5.0099e+02 ;     C7 - C8     - C9    
   359    360    378      1    1.0968e+02    3.6208e+02 ;     C7 - C8     - H16   
   359    360    379      1    1.0968e+02    3.6208e+02 ;     C7 - C8     - H17   
   360    359    376      1    1.0968e+02    3.6208e+02 ;     C8 - C7     - H14   
   360    359    377      1    1.0968e+02    3.6208e+02 ;     C8 - C7     - H15   
   360    361    362      1    1.1263e+02    5.0099e+02 ;     C8 - C9     - C10   
   360    361    380      1    1.0968e+02    3.6208e+02 ;     C8 - C9     - H18   
   360    361    381      1    1.0968e+02    3.6208e+02 ;     C8 - C9     - H19   
   361    360    378      1    1.0968e+02    3.6208e+02 ;     C9 - C8     - H16   
   361    360    379      1    1.0968e+02    3.6208e+02 ;     C9 - C8     - H17   
   361    362    382      1    1.0968e+02    3.6208e+02 ;     C9 - C10    - H20   
   361    362    383      1    1.0968e+02    3.6208e+02 ;     C9 - C10    - H21   
   361    362    384      1    1.0968e+02    3.6208e+02 ;     C9 - C10    - H22   
   362    361    380      1    1.0968e+02    3.6208e+02 ;    C10 - C9     - H18   
   362    361    381      1    1.0968e+02    3.6208e+02 ;    C10 - C9     - H19   
   363    353    364      1    1.0773e+02    2.9957e+02 ;     H1 - C1     - H2    
   363    353    365      1    1.0773e+02    2.9957e+02 ;     H1 - C1     - H3    
   364    353    365      1    1.0773e+02    2.9957e+02 ;     H2 - C1     - H3    
   366    354    367      1    1.0773e+02    2.9957e+02 ;     H4 - C2     - H5    
   368    355    369      1    1.0773e+02    2.9957e+02 ;     H6 - C3     - H7    
   370    356    371      1    1.0773e+02    2.9957e+02 ;     H8 - C4     - H9    
   372    357    373      1    1.0773e+02    2.9957e+02 ;    H10 - C5     - H11   
   374    358    375      1    1.0773e+02    2.9957e+02 ;    H12 - C6     - H13   
   376    359    377      1    1.0773e+02    2.9957e+02 ;    H14 - C7     - H15   
   378    360    379      1    1.0773e+02    2.9957e+02 ;    H16 - C8     - H17   
   380    361    381      1    1.0773e+02    2.9957e+02 ;    H18 - C9     - H19   
   382    362    383      1    1.0773e+02    2.9957e+02 ;    H20 - C10    - H21   
   382    362    384      1    1.0773e+02    2.9957e+02 ;    H20 - C10    - H22   
   383    362    384      1    1.0773e+02    2.9957e+02 ;    H21 - C10    - H22   
   385    386    387      1    1.1263e+02    5.0099e+02 ;     C1 - C2     - C3    
   385    386    398      1    1.0968e+02    3.6208e+02 ;     C1 - C2     - H4    
   385    386    399      1    1.0968e+02    3.6208e+02 ;     C1 - C2     - H5    
   386    385    395      1    1.0968e+02    3.6208e+02 ;     C2 - C1     - H1    
   386    385    396      1    1.0968e+02    3.6208e+02 ;     C2 - C1     - H2    
   386    385    397      1    1.0968e+02    3.6208e+02 ;     C2 - C1     - H3    
   386    387    388      1    1.1263e+02    5.0099e+02 ;     C2 - C3     - C4    
   386    387    400      1    1.0968e+02    3.6208e+02 ;     C2 - C3     - H6    
   386    387    401      1    1.0968e+02    3.6208e+02 ;     C2 - C3     - H7    
   387    386    398      1    1.0968e+02    3.6208e+02 ;     C3 - C2     - H4    
   387    386    399      1    1.0968e+02    3.6208e+02 ;     C3 - C2     - H5    
   387    388    389      1    1.1263e+02    5.0099e+02 ;     C3 - C4     - C5    
   387    388    402      1    1.0968e+02    3.6208e+02 ;     C3 - C4     - H8    
   387    388    403      1    1.0968e+02    3.6208e+02 ;     C3 - C4     - H9    
   388    387    400      1    1.0968e+02    3.6208e+02 ;     C4 - C3     - H6    
   388    387    401      1    1.0968e+02    3.6208e+02 ;     C4 - C3     - H7    
   388    389    390      1    1.1263e+02    5.0099e+02 ;     C4 - C5     - C6    
   388    389    404      1    1.0968e+02    3.6208e+02 ;     C4 - C5     - H10   
   388    389    405      1    1.0968e+02    3.6208e+02 ;     C4 - C5     - H11   
   389    388    402      1    1.0968e+02    3.6208e+02 ;     C5 - C4     - H8    
   389    388    403      1    1.0968e+02    3.6208e+02 ;     C5 - C4     - H9    
   389    390    391      1    1.1263e+02    5.0099e+02 ;     C5 - C6     - C7    
   389    390    406      1    1.0968e+02    3.6208e+02 ;     C5 - C6     - H12   
   389    390    407      1    1.0968e+02    3.6208e+02 ;     C5 - C6     - H13   
   390    389    404      1    1.0968e+02    3.6208e+02 ;     C6 - C5     - H10   
   390    389    405      1    1.0968e+02    3.6208e+02 ;     C6 - C5     - H11   
   390    391    392      1    1.1263e+02    5.0099e+02 ;     C6 - C7     - C8    
   390    391    408      1    1.0968e+02    3.6208e+02 ;     C6 - C7     - H14   
   390    391    409      1    1.0968e+02    3.6208e+02 ;     C6 - C7     - H15   
   391    390    406      1    1.0968e+02    3.6208e+02 ;     C7 - C6     - H12   
   391    390    407      1    1.0968e+02    3.6208e+02 ;     C7 - C6     - H13   
   391    392    393      1    1.1263e+02    5.0099e+02 ;     C7 - C8     - C9    
   391    392    410      1    1.0968e+02    3.6208e+02 ;     C7 - C8     - H16   
   391    392    411      1    1.0968e+02    3.6208e+02 ;     C7 - C8     - H17   
   392    391    408      1    1.0968e+02    3.6208e+02 ;     C8 - C7     - H14   
   392    391    409      1    1.0968e+02    3.6208e+02 ;     C8 - C7     - H15   
   392    393    394      1    1.1263e+02    5.0099e+02 ;     C8 - C9     - C10   
   392    393    412      1    1.0968e+02    3.6208e+02 ;     C8 - C9     - H18   
   392    393    413      1    1.0968e+02    3.6208e+02 ;     C8 - C9     - H19   
   393    392    410      1    1.0968e+02    3.6208e+02 ;     C9 - C8     - H16   
   393    392    411      1    1.0968e+02    3.6208e+02 ;     C9 - C8     - H17   
   393    394    414      1    1.0968e+02    3.6208e+02 ;     C9 - C10    - H20   
   393    394    415      1    1.0968e+02    3.6208e+02 ;     C9 - C10    - H21   
   393    394    416      1    1.0968e+02    3.6208e+02 ;     C9 - C10    - H22   
   394    393    412      1    1.0968e+02    3.6208e+02 ;    C10 - C9     - H18   
   394    393    413      1    1.0968e+02    3.6208e+02 ;    C10 - C9     - H19   
   395    385    396      1    1.0773e+02    2.9957e+02 ;     H1 - C1     - H2    
   395    385    397      1    1.0773e+02    2.9957e+02 ;     H1 - C1     - H3    
   396    385    397      1    1.0773e+02    2.9957e+02 ;     H2 - C1     - H3    
   398    386    399      1    1.0773e+02    2.9957e+02 ;     H4 - C2     - H5    
   400    387    401      1    1.0773e+02    2.9957e+02 ;     H6 - C3     - H7    
   402    388    403      1    1.0773e+02    2.9957e+02 ;     H8 - C4     - H9    
   404    389    405      1    1.0773e+02    2.9957e+02 ;    H10 - C5     - H11   
   406    390    407      1    1.0773e+02    2.9957e+02 ;    H12 - C6     - H13   
   408    391    409      1    1.0773e+02    2.9957e+02 ;    H14 - C7     - H15   
   410    392    411      1    1.0773e+02    2.9957e+02 ;    H16 - C8     - H17   
   412    393    413      1    1.0773e+02    2.9957e+02 ;    H18 - C9     - H19   
   414    394    415      1    1.0773e+02    2.9957e+02 ;    H20 - C10    - H21   
   414    394    416      1    1.0773e+02    2.9957e+02 ;    H20 - C10    - H22   
   415    394    416      1    1.0773e+02    2.9957e+02 ;    H21 - C10    - H22   
   417    418    419      1    1.1263e+02    5.0099e+02 ;     C1 - C2     - C3    
   417    418    430      1    1.0968e+02    3.6208e+02 ;     C1 - C2     - H4    
   417    418    431      1    1.0968e+02    3.6208e+02 ;     C1 - C2     - H5    
   418    417    427      1    1.0968e+02    3.6208e+02 ;     C2 - C1     - H1    
   418    417    428      1    1.0968e+02    3.6208e+02 ;     C2 - C1     - H2    
   418    417    429      1    1.0968e+02    3.6208e+02 ;     C2 - C1     - H3    
   418    419    420      1    1.1263e+02    5.0099e+02 ;     C2 - C3     - C4    
   418    419    432      1    1.0968e+02    3.6208e+02 ;     C2 - C3     - H6    
   418    419    433      1    1.0968e+02    3.6208e+02 ;     C2 - C3     - H7    
   419    418    430      1    1.0968e+02    3.6208e+02 ;     C3 - C2     - H4    
   419    418    431      1    1.0968e+02    3.6208e+02 ;     C3 - C2     - H5    
   419    420    421      1    1.1263e+02    5.0099e+02 ;     C3 - C4     - C5    
   419    420    434      1    1.0968e+02    3.6208e+02 ;     C3 - C4     - H8    
   419    420    435      1    1.0968e+02    3.6208e+02 ;     C3 - C4     - H9    
   420    419    432      1    1.0968e+02    3.6208e+02 ;     C4 - C3     - H6    
   420    419    433      1    1.0968e+02    3.6208e+02 ;     C4 - C3     - H7    
   420    421    422      1    1.1263e+02    5.0099e+02 ;     C4 - C5     - C6    
   420    421    436      1    1.0968e+02    3.6208e+02 ;     C4 - C5     - H10   
   420    421    437      1    1.0968e+02    3.6208e+02 ;     C4 - C5     - H11   
   421    420    434      1    1.0968e+02    3.6208e+02 ;     C5 - C4     - H8    
   421    420    435      1    1.0968e+02    3.6208e+02 ;     C5 - C4     - H9    
   421    422    423      1    1.1263e+02    5.0099e+02 ;     C5 - C6     - C7    
   421    422    438      1    1.0968e+02    3.6208e+02 ;     C5 - C6     - H12   
   421    422    439      1    1.0968e+02    3.6208e+02 ;     C5 - C6     - H13   
   422    421    436      1    1.0968e+02    3.6208e+02 ;     C6 - C5     - H10   
   422    421    437      1    1.0968e+02    3.6208e+02 ;     C6 - C5     - H11   
   422    423    424      1    1.1263e+02    5.0099e+02 ;     C6 - C7     - C8    
   422    423    440      1    1.0968e+02    3.6208e+02 ;     C6 - C7     - H14   
   422    423    441      1    1.0968e+02    3.6208e+02 ;     C6 - C7     - H15   
   423    422    438      1    1.0968e+02    3.6208e+02 ;     C7 - C6     - H12   
   423    422    439      1    1.0968e+02    3.6208e+02 ;     C7 - C6     - H13   
   423    424    425      1    1.1263e+02    5.0099e+02 ;     C7 - C8     - C9    
   423    424    442      1    1.0968e+02    3.6208e+02 ;     C7 - C8     - H16   
   423    424    443      1    1.0968e+02    3.6208e+02 ;     C7 - C8     - H17   
   424    423    440      1    1.0968e+02    3.6208e+02 ;     C8 - C7     - H14   
   424    423    441      1    1.0968e+02    3.6208e+02 ;     C8 - C7     - H15   
   424    425    426      1    1.1263e+02    5.0099e+02 ;     C8 - C9     - C10   
   424    425    444      1    1.0968e+02    3.6208e+02 ;     C8 - C9     - H18   
   424    425    445      1    1.0968e+02    3.6208e+02 ;     C8 - C9     - H19   
   425    424    442      1    1.0968e+02    3.6208e+02 ;     C9 - C8     - H16   
   425    424    443      1    1.0968e+02    3.6208e+02 ;     C9 - C8     - H17   
   425    426    446      1    1.0968e+02    3.6208e+02 ;     C9 - C10    - H20   
   425    426    447      1    1.0968e+02    3.6208e+02 ;     C9 - C10    - H21   
   425    426    448      1    1.0968e+02    3.6208e+02 ;     C9 - C10    - H22   
   426    425    444      1    1.0968e+02    3.6208e+02 ;    C10 - C9     - H18   
   426    425    445      1    1.0968e+02    3.6208e+02 ;    C10 - C9     - H19   
   427    417    428      1    1.0773e+02    2.9957e+02 ;     H1 - C1     - H2    
   427    417    429      1    1.0773e+02    2.9957e+02 ;     H1 - C1     - H3    
   428    417    429      1    1.0773e+02    2.9957e+02 ;     H2 - C1     - H3    
   430    418    431      1    1.0773e+02    2.9957e+02 ;     H4 - C2     - H5    
   432    419    433      1    1.0773e+02    2.9957e+02 ;     H6 - C3     - H7    
   434    420    435      1    1.0773e+02    2.9957e+02 ;     H8 - C4     - H9    
   436    421    437      1    1.0773e+02    2.9957e+02 ;    H10 - C5     - H11   
   438    422    439      1    1.0773e+02    2.9957e+02 ;    H12 - C6     - H13   
   440    423    441      1    1.0773e+02    2.9957e+02 ;    H14 - C7     - H15   
   442    424    443      1    1.0773e+02    2.9957e+02 ;    H16 - C8     - H17   
   444    425    445      1    1.0773e+02    2.9957e+02 ;    H18 - C9     - H19   
   446    426    447      1    1.0773e+02    2.9957e+02 ;    H20 - C10    - H21   
   446    426    448      1    1.0773e+02    2.9957e+02 ;    H20 - C10    - H22   
   447    426    448      1    1.0773e+02    2.9957e+02 ;    H21 - C10    - H22   
   449    450    451      1    1.1263e+02    5.0099e+02 ;     C1 - C2     - C3    
   449    450    462      1    1.0968e+02    3.6208e+02 ;     C1 - C2     - H4    
   449    450    463      1    1.0968e+02    3.6208e+02 ;     C1 - C2     - H5    
   450    449    459      1    1.0968e+02    3.6208e+02 ;     C2 - C1     - H1    
   450    449    460      1    1.0968e+02    3.6208e+02 ;     C2 - C1     - H2    
   450    449    461      1    1.0968e+02    3.6208e+02 ;     C2 - C1     - H3    
   450    451    452      1    1.1263e+02    5.0099e+02 ;     C2 - C3     - C4    
   450    451    464      1    1.0968e+02    3.6208e+02 ;     C2 - C3     - H6    
   450    451    465      1    1.0968e+02    3.6208e+02 ;     C2 - C3     - H7    
   451    450    462      1    1.0968e+02    3.6208e+02 ;     C3 - C2     - H4    
   451    450    463      1    1.0968e+02    3.6208e+02 ;     C3 - C2     - H5    
   451    452    453      1    1.1263e+02    5.0099e+02 ;     C3 - C4     - C5    
   451    452    466      1    1.0968e+02    3.6208e+02 ;     C3 - C4     - H8    
   451    452    467      1    1.0968e+02    3.6208e+02 ;     C3 - C4     - H9    
   452    451    464      1    1.0968e+02    3.6208e+02 ;     C4 - C3     - H6    
   452    451    465      1    1.0968e+02    3.6208e+02 ;     C4 - C3     - H7    
   452    453    454      1    1.1263e+02    5.0099e+02 ;     C4 - C5     - C6    
   452    453    468      1    1.0968e+02    3.6208e+02 ;     C4 - C5     - H10   
   452    453    469      1    1.0968e+02    3.6208e+02 ;     C4 - C5     - H11   
   453    452    466      1    1.0968e+02    3.6208e+02 ;     C5 - C4     - H8    
   453    452    467      1    1.0968e+02    3.6208e+02 ;     C5 - C4     - H9    
   453    454    455      1    1.1263e+02    5.0099e+02 ;     C5 - C6     - C7    
   453    454    470      1    1.0968e+02    3.6208e+02 ;     C5 - C6     - H12   
   453    454    471      1    1.0968e+02    3.6208e+02 ;     C5 - C6     - H13   
   454    453    468      1    1.0968e+02    3.6208e+02 ;     C6 - C5     - H10   
   454    453    469      1    1.0968e+02    3.6208e+02 ;     C6 - C5     - H11   
   454    455    456      1    1.1263e+02    5.0099e+02 ;     C6 - C7     - C8    
   454    455    472      1    1.0968e+02    3.6208e+02 ;     C6 - C7     - H14   
   454    455    473      1    1.0968e+02    3.6208e+02 ;     C6 - C7     - H15   
   455    454    470      1    1.0968e+02    3.6208e+02 ;     C7 - C6     - H12   
   455    454    471      1    1.0968e+02    3.6208e+02 ;     C7 - C6     - H13   
   455    456    457      1    1.1263e+02    5.0099e+02 ;     C7 - C8     - C9    
   455    456    474      1    1.0968e+02    3.6208e+02 ;     C7 - C8     - H16   
   455    456    475      1    1.0968e+02    3.6208e+02 ;     C7 - C8     - H17   
   456    455    472      1    1.0968e+02    3.6208e+02 ;     C8 - C7     - H14   
   456    455    473      1    1.0968e+02    3.6208e+02 ;     C8 - C7     - H15   
   456    457    458      1    1.1263e+02    5.0099e+02 ;     C8 - C9     - C10   
   456    457    476      1    1.0968e+02    3.6208e+02 ;     C8 - C9     - H18   
   456    457    477      1    1.0968e+02    3.6208e+02 ;     C8 - C9     - H19   
   457    456    474      1    1.0968e+02    3.6208e+02 ;     C9 - C8     - H16   
   457    456    475      1    1.0968e+02    3.6208e+02 ;     C9 - C8     - H17   
   457    458    478      1    1.0968e+02    3.6208e+02 ;     C9 - C10    - H20   
   457    458    479      1    1.0968e+02    3.6208e+02 ;     C9 - C10    - H21   
   457    458    480      1    1.0968e+02    3.6208e+02 ;     C9 - C10    - H22   
   458    457    476      1    1.0968e+02    3.6208e+02 ;    C10 - C9     - H18   
   458    457    477      1    1.0968e+02    3.6208e+02 ;    C10 - C9     - H19   
   459    449    460      1    1.0773e+02    2.9957e+02 ;     H1 - C1     - H2    
   459    449    461      1    1.0773e+02    2.9957e+02 ;     H1 - C1     - H3    
   460    449    461      1    1.0773e+02    2.9957e+02 ;     H2 - C1     - H3    
   462    450    463      1    1.0773e+02    2.9957e+02 ;     H4 - C2     - H5    
   464    451    465      1    1.0773e+02    2.9957e+02 ;     H6 - C3     - H7    
   466    452    467      1    1.0773e+02    2.9957e+02 ;     H8 - C4     - H9    
   468    453    469      1    1.0773e+02    2.9957e+02 ;    H10 - C5     - H11   
   470    454    471      1    1.0773e+02    2.9957e+02 ;    H12 - C6     - H13   
   472    455    473      1    1.0773e+02    2.9957e+02 ;    H14 - C7     - H15   
   474    456    475      1    1.0773e+02    2.9957e+02 ;    H16 - C8     - H17   
   476    457    477      1    1.0773e+02    2.9957e+02 ;    H18 - C9     - H19   
   478    458    479      1    1.0773e+02    2.9957e+02 ;    H20 - C10    - H21   
   478    458    480      1    1.0773e+02    2.9957e+02 ;    H20 - C10    - H22   
   479    458    480      1    1.0773e+02    2.9957e+02 ;    H21 - C10    - H22   
   481    482    483      1    1.1263e+02    5.0099e+02 ;     C1 - C2     - C3    
   481    482    494      1    1.0968e+02    3.6208e+02 ;     C1 - C2     - H4    
   481    482    495      1    1.0968e+02    3.6208e+02 ;     C1 - C2     - H5    
   482    481    491      1    1.0968e+02    3.6208e+02 ;     C2 - C1     - H1    
   482    481    492      1    1.0968e+02    3.6208e+02 ;     C2 - C1     - H2    
   482    481    493      1    1.0968e+02    3.6208e+02 ;     C2 - C1     - H3    
   482    483    484      1    1.1263e+02    5.0099e+02 ;     C2 - C3     - C4    
   482    483    496      1    1.0968e+02    3.6208e+02 ;     C2 - C3     - H6    
   482    483    497      1    1.0968e+02    3.6208e+02 ;     C2 - C3     - H7    
   483    482    494      1    1.0968e+02    3.6208e+02 ;     C3 - C2     - H4    
   483    482    495      1    1.0968e+02    3.6208e+02 ;     C3 - C2     - H5    
   483    484    485      1    1.1263e+02    5.0099e+02 ;     C3 - C4     - C5    
   483    484    498      1    1.0968e+02    3.6208e+02 ;     C3 - C4     - H8    
   483    484    499      1    1.0968e+02    3.6208e+02 ;     C3 - C4     - H9    
   484    483    496      1    1.0968e+02    3.6208e+02 ;     C4 - C3     - H6    
   484    483    497      1    1.0968e+02    3.6208e+02 ;     C4 - C3     - H7    
   484    485    486      1    1.1263e+02    5.0099e+02 ;     C4 - C5     - C6    
   484    485    500      1    1.0968e+02    3.6208e+02 ;     C4 - C5     - H10   
   484    485    501      1    1.0968e+02    3.6208e+02 ;     C4 - C5     - H11   
   485    484    498      1    1.0968e+02    3.6208e+02 ;     C5 - C4     - H8    
   485    484    499      1    1.0968e+02    3.6208e+02 ;     C5 - C4     - H9    
   485    486    487      1    1.1263e+02    5.0099e+02 ;     C5 - C6     - C7    
   485    486    502      1    1.0968e+02    3.6208e+02 ;     C5 - C6     - H12   
   485    486    503      1    1.0968e+02    3.6208e+02 ;     C5 - C6     - H13   
   486    485    500      1    1.0968e+02    3.6208e+02 ;     C6 - C5     - H10   
   486    485    501      1    1.0968e+02    3.6208e+02 ;     C6 - C5     - H11   
   486    487    488      1    1.1263e+02    5.0099e+02 ;     C6 - C7     - C8    
   486    487    504      1    1.0968e+02    3.6208e+02 ;     C6 - C7     - H14   
   486    487    505      1    1.0968e+02    3.6208e+02 ;     C6 - C7     - H15   
   487    486    502      1    1.0968e+02    3.6208e+02 ;     C7 - C6     - H12   
   487    486    503      1    1.0968e+02    3.6208e+02 ;     C7 - C6     - H13   
   487    488    489      1    1.1263e+02    5.0099e+02 ;     C7 - C8     - C9    
   487    488    506      1    1.0968e+02    3.6208e+02 ;     C7 - C8     - H16   
   487    488    507      1    1.0968e+02    3.6208e+02 ;     C7 - C8     - H17   
   488    487    504      1    1.0968e+02    3.6208e+02 ;     C8 - C7     - H14   
   488    487    505      1    1.0968e+02    3.6208e+02 ;     C8 - C7     - H15   
   488    489    490      1    1.1263e+02    5.0099e+02 ;     C8 - C9     - C10   
   488    489    508      1    1.0968e+02    3.6208e+02 ;     C8 - C9     - H18   
   488    489    509      1    1.0968e+02    3.6208e+02 ;     C8 - C9     - H19   
   489    488    506      1    1.0968e+02    3.6208e+02 ;     C9 - C8     - H16   
   489    488    507      1    1.0968e+02    3.6208e+02 ;     C9 - C8     - H17   
   489    490    510      1    1.0968e+02    3.6208e+02 ;     C9 - C10    - H20   
   489    490    511      1    1.0968e+02    3.6208e+02 ;     C9 - C10    - H21   
   489    490    512      1    1.0968e+02    3.6208e+02 ;     C9 - C10    - H22   
   490    489    508      1    1.0968e+02    3.6208e+02 ;    C10 - C9     - H18   
   490    489    509      1    1.0968e+02    3.6208e+02 ;    C10 - C9     - H19   
   491    481    492      1    1.0773e+02    2.9957e+02 ;     H1 - C1     - H2    
   491    481    493      1    1.0773e+02    2.9957e+02 ;     H1 - C1     - H3    
   492    481    493      1    1.0773e+02    2.9957e+02 ;     H2 - C1     - H3    
   494    482    495      1    1.0773e+02    2.9957e+02 ;     H4 - C2     - H5    
   496    483    497      1    1.0773e+02    2.9957e+02 ;     H6 - C3     - H7    
   498    484    499      1    1.0773e+02    2.9957e+02 ;     H8 - C4     - H9    
   500    485    501      1    1.0773e+02    2.9957e+02 ;    H10 - C5     - H11   
   502    486    503      1    1.0773e+02    2.9957e+02 ;    H12 - C6     - H13   
   504    487    505      1    1.0773e+02    2.9957e+02 ;    H14 - C7     - H15   
   506    488    507      1    1.0773e+02    2.9957e+02 ;    H16 - C8     - H17   
   508    489    509      1    1.0773e+02    2.9957e+02 ;    H18 - C9     - H19   
   510    490    511      1    1.0773e+02    2.9957e+02 ;    H20 - C10    - H21   
   510    490    512      1    1.0773e+02    2.9957e+02 ;    H20 - C10    - H22   
   511    490    512      1    1.0773e+02    2.9957e+02 ;    H21 - C10    - H22   
   513    514    515      1    1.1263e+02    5.0099e+02 ;     C1 - C2     - C3    
   513    514    526      1    1.0968e+02    3.6208e+02 ;     C1 - C2     - H4    
   513    514    527      1    1.0968e+02    3.6208e+02 ;     C1 - C2     - H5    
   514    513    523      1    1.0968e+02    3.6208e+02 ;     C2 - C1     - H1    
   514    513    524      1    1.0968e+02    3.6208e+02 ;     C2 - C1     - H2    
   514    513    525      1    1.0968e+02    3.6208e+02 ;     C2 - C1     - H3    
   514    515    516      1    1.1263e+02    5.0099e+02 ;     C2 - C3     - C4    
   514    515    528      1    1.0968e+02    3.6208e+02 ;     C2 - C3     - H6    
   514    515    529      1    1.0968e+02    3.6208e+02 ;     C2 - C3     - H7    
   515    514    526      1    1.0968e+02    3.6208e+02 ;     C3 - C2     - H4    
   515    514    527      1    1.0968e+02    3.6208e+02 ;     C3 - C2     - H5    
   515    516    517      1    1.1263e+02    5.0099e+02 ;     C3 - C4     - C5    
   515    516    530      1    1.0968e+02    3.6208e+02 ;     C3 - C4     - H8    
   515    516    531      1    1.0968e+02    3.6208e+02 ;     C3 - C4     - H9    
   516    515    528      1    1.0968e+02    3.6208e+02 ;     C4 - C3     - H6    
   516    515    529      1    1.0968e+02    3.6208e+02 ;     C4 - C3     - H7    
   516    517    518      1    1.1263e+02    5.0099e+02 ;     C4 - C5     - C6    
   516    517    532      1    1.0968e+02    3.6208e+02 ;     C4 - C5     - H10   
   516    517    533      1    1.0968e+02    3.6208e+02 ;     C4 - C5     - H11   
   517    516    530      1    1.0968e+02    3.6208e+02 ;     C5 - C4     - H8    
   517    516    531      1    1.0968e+02    3.6208e+02 ;     C5 - C4     - H9    
   517    518    519      1    1.1263e+02    5.0099e+02 ;     C5 - C6     - C7    
   517    518    534      1    1.0968e+02    3.6208e+02 ;     C5 - C6     - H12   
   517    518    535      1    1.0968e+02    3.6208e+02 ;     C5 - C6     - H13   
   518    517    532      1    1.0968e+02    3.6208e+02 ;     C6 - C5     - H10   
   518    517    533      1    1.0968e+02    3.6208e+02 ;     C6 - C5     - H11   
   518    519    520      1    1.1263e+02    5.0099e+02 ;     C6 - C7     - C8    
   518    519    536      1    1.0968e+02    3.6208e+02 ;     C6 - C7     - H14   
   518    519    537      1    1.0968e+02    3.6208e+02 ;     C6 - C7     - H15   
   519    518    534      1    1.0968e+02    3.6208e+02 ;     C7 - C6     - H12   
   519    518    535      1    1.0968e+02    3.6208e+02 ;     C7 - C6     - H13   
   519    520    521      1    1.1263e+02    5.0099e+02 ;     C7 - C8     - C9    
   519    520    538      1    1.0968e+02    3.6208e+02 ;     C7 - C8     - H16   
   519    520    539      1    1.0968e+02    3.6208e+02 ;     C7 - C8     - H17   
   520    519    536      1    1.0968e+02    3.6208e+02 ;     C8 - C7     - H14   
   520    519    537      1    1.0968e+02    3.6208e+02 ;     C8 - C7     - H15   
   520    521    522      1    1.1263e+02    5.0099e+02 ;     C8 - C9     - C10   
   520    521    540      1    1.0968e+02    3.6208e+02 ;     C8 - C9     - H18   
   520    521    541      1    1.0968e+02    3.6208e+02 ;     C8 - C9     - H19   
   521    520    538      1    1.0968e+02    3.6208e+02 ;     C9 - C8     - H16   
   521    520    539      1    1.0968e+02    3.6208e+02 ;     C9 - C8     - H17   
   521    522    542      1    1.0968e+02    3.6208e+02 ;     C9 - C10    - H20   
   521    522    543      1    1.0968e+02    3.6208e+02 ;     C9 - C10    - H21   
   521    522    544      1    1.0968e+02    3.6208e+02 ;     C9 - C10    - H22   
   522    521    540      1    1.0968e+02    3.6208e+02 ;    C10 - C9     - H18   
   522    521    541      1    1.0968e+02    3.6208e+02 ;    C10 - C9     - H19   
   523    513    524      1    1.0773e+02    2.9957e+02 ;     H1 - C1     - H2    
   523    513    525      1    1.0773e+02    2.9957e+02 ;     H1 - C1     - H3    
   524    513    525      1    1.0773e+02    2.9957e+02 ;     H2 - C1     - H3    
   526    514    527      1    1.0773e+02    2.9957e+02 ;     H4 - C2     - H5    
   528    515    529      1    1.0773e+02    2.9957e+02 ;     H6 - C3     - H7    
   530    516    531      1    1.0773e+02    2.9957e+02 ;     H8 - C4     - H9    
   532    517    533      1    1.0773e+02    2.9957e+02 ;    H10 - C5     - H11   
   534    518    535      1    1.0773e+02    2.9957e+02 ;    H12 - C6     - H13   
   536    519    537      1    1.0773e+02    2.9957e+02 ;    H14 - C7     - H15   
   538    520    539      1    1.0773e+02    2.9957e+02 ;    H16 - C8     - H17   
   540    521    541      1    1.0773e+02    2.9957e+02 ;    H18 - C9     - H19   
   542    522    543      1    1.0773e+02    2.9957e+02 ;    H20 - C10    - H21   
   542    522    544      1    1.0773e+02    2.9957e+02 ;    H20 - C10    - H22   
   543    522    544      1    1.0773e+02    2.9957e+02 ;    H21 - C10    - H22   
   545    546    547      1    1.1263e+02    5.0099e+02 ;     C1 - C2     - C3    
   545    546    558      1    1.0968e+02    3.6208e+02 ;     C1 - C2     - H4    
   545    546    559      1    1.0968e+02    3.6208e+02 ;     C1 - C2     - H5    
   546    545    555      1    1.0968e+02    3.6208e+02 ;     C2 - C1     - H1    
   546    545    556      1    1.0968e+02    3.6208e+02 ;     C2 - C1     - H2    
   546    545    557      1    1.0968e+02    3.6208e+02 ;     C2 - C1     - H3    
   546    547    548      1    1.1263e+02    5.0099e+02 ;     C2 - C3     - C4    
   546    547    560      1    1.0968e+02    3.6208e+02 ;     C2 - C3     - H6    
   546    547    561      1    1.0968e+02    3.6208e+02 ;     C2 - C3     - H7    
   547    546    558      1    1.0968e+02    3.6208e+02 ;     C3 - C2     - H4    
   547    546    559      1    1.0968e+02    3.6208e+02 ;     C3 - C2     - H5    
   547    548    549      1    1.1263e+02    5.0099e+02 ;     C3 - C4     - C5    
   547    548    562      1    1.0968e+02    3.6208e+02 ;     C3 - C4     - H8    
   547    548    563      1    1.0968e+02    3.6208e+02 ;     C3 - C4     - H9    
   548    547    560      1    1.0968e+02    3.6208e+02 ;     C4 - C3     - H6    
   548    547    561      1    1.0968e+02    3.6208e+02 ;     C4 - C3     - H7    
   548    549    550      1    1.1263e+02    5.0099e+02 ;     C4 - C5     - C6    
   548    549    564      1    1.0968e+02    3.6208e+02 ;     C4 - C5     - H10   
   548    549    565      1    1.0968e+02    3.6208e+02 ;     C4 - C5     - H11   
   549    548    562      1    1.0968e+02    3.6208e+02 ;     C5 - C4     - H8    
   549    548    563      1    1.0968e+02    3.6208e+02 ;     C5 - C4     - H9    
   549    550    551      1    1.1263e+02    5.0099e+02 ;     C5 - C6     - C7    
   549    550    566      1    1.0968e+02    3.6208e+02 ;     C5 - C6     - H12   
   549    550    567      1    1.0968e+02    3.6208e+02 ;     C5 - C6     - H13   
   550    549    564      1    1.0968e+02    3.6208e+02 ;     C6 - C5     - H10   
   550    549    565      1    1.0968e+02    3.6208e+02 ;     C6 - C5     - H11   
   550    551    552      1    1.1263e+02    5.0099e+02 ;     C6 - C7     - C8    
   550    551    568      1    1.0968e+02    3.6208e+02 ;     C6 - C7     - H14   
   550    551    569      1    1.0968e+02    3.6208e+02 ;     C6 - C7     - H15   
   551    550    566      1    1.0968e+02    3.6208e+02 ;     C7 - C6     - H12   
   551    550    567      1    1.0968e+02    3.6208e+02 ;     C7 - C6     - H13   
   551    552    553      1    1.1263e+02    5.0099e+02 ;     C7 - C8     - C9    
   551    552    570      1    1.0968e+02    3.6208e+02 ;     C7 - C8     - H16   
   551    552    571      1    1.0968e+02    3.6208e+02 ;     C7 - C8     - H17   
   552    551    568      1    1.0968e+02    3.6208e+02 ;     C8 - C7     - H14   
   552    551    569      1    1.0968e+02    3.6208e+02 ;     C8 - C7     - H15   
   552    553    554      1    1.1263e+02    5.0099e+02 ;     C8 - C9     - C10   
   552    553    572      1    1.0968e+02    3.6208e+02 ;     C8 - C9     - H18   
   552    553    573      1    1.0968e+02    3.6208e+02 ;     C8 - C9     - H19   
   553    552    570      1    1.0968e+02    3.6208e+02 ;     C9 - C8     - H16   
   553    552    571      1    1.0968e+02    3.6208e+02 ;     C9 - C8     - H17   
   553    554    574      1    1.0968e+02    3.6208e+02 ;     C9 - C10    - H20   
   553    554    575      1    1.0968e+02    3.6208e+02 ;     C9 - C10    - H21   
   553    554    576      1    1.0968e+02    3.6208e+02 ;     C9 - C10    - H22   
   554    553    572      1    1.0968e+02    3.6208e+02 ;    C10 - C9     - H18   
   554    553    573      1    1.0968e+02    3.6208e+02 ;    C10 - C9     - H19   
   555    545    556      1    1.0773e+02    2.9957e+02 ;     H1 - C1     - H2    
   555    545    557      1    1.0773e+02    2.9957e+02 ;     H1 - C1     - H3    
   556    545    557      1    1.0773e+02    2.9957e+02 ;     H2 - C1     - H3    
   558    546    559      1    1.0773e+02    2.9957e+02 ;     H4 - C2     - H5    
   560    547    561      1    1.0773e+02    2.9957e+02 ;     H6 - C3     - H7    
   562    548    563      1    1.0773e+02    2.9957e+02 ;     H8 - C4     - H9    
   564    549    565      1    1.0773e+02    2.9957e+02 ;    H10 - C5     - H11   
   566    550    567      1    1.0773e+02    2.9957e+02 ;    H12 - C6     - H13   
   568    551    569      1    1.0773e+02    2.9957e+02 ;    H14 - C7     - H15   
   570    552    571      1    1.0773e+02    2.9957e+02 ;    H16 - C8     - H17   
   572    553    573      1    1.0773e+02    2.9957e+02 ;    H18 - C9     - H19   
   574    554    575      1    1.0773e+02    2.9957e+02 ;    H20 - C10    - H21   
   574    554    576      1    1.0773e+02    2.9957e+02 ;    H20 - C10    - H22   
   575    554    576      1    1.0773e+02    2.9957e+02 ;    H21 - C10    - H22   
   577    578    579      1    1.1263e+02    5.0099e+02 ;     C1 - C2     - C3    
   577    578    590      1    1.0968e+02    3.6208e+02 ;     C1 - C2     - H4    
   577    578    591      1    1.0968e+02    3.6208e+02 ;     C1 - C2     - H5    
   578    577    587      1    1.0968e+02    3.6208e+02 ;     C2 - C1     - H1    
   578    577    588      1    1.0968e+02    3.6208e+02 ;     C2 - C1     - H2    
   578    577    589      1    1.0968e+02    3.6208e+02 ;     C2 - C1     - H3    
   578    579    580      1    1.1263e+02    5.0099e+02 ;     C2 - C3     - C4    
   578    579    592      1    1.0968e+02    3.6208e+02 ;     C2 - C3     - H6    
   578    579    593      1    1.0968e+02    3.6208e+02 ;     C2 - C3     - H7    
   579    578    590      1    1.0968e+02    3.6208e+02 ;     C3 - C2     - H4    
   579    578    591      1    1.0968e+02    3.6208e+02 ;     C3 - C2     - H5    
   579    580    581      1    1.1263e+02    5.0099e+02 ;     C3 - C4     - C5    
   579    580    594      1    1.0968e+02    3.6208e+02 ;     C3 - C4     - H8    
   579    580    595      1    1.0968e+02    3.6208e+02 ;     C3 - C4     - H9    
   580    579    592      1    1.0968e+02    3.6208e+02 ;     C4 - C3     - H6    
   580    579    593      1    1.0968e+02    3.6208e+02 ;     C4 - C3     - H7    
   580    581    582      1    1.1263e+02    5.0099e+02 ;     C4 - C5     - C6    
   580    581    596      1    1.0968e+02    3.6208e+02 ;     C4 - C5     - H10   
   580    581    597      1    1.0968e+02    3.6208e+02 ;     C4 - C5     - H11   
   581    580    594      1    1.0968e+02    3.6208e+02 ;     C5 - C4     - H8    
   581    580    595      1    1.0968e+02    3.6208e+02 ;     C5 - C4     - H9    
   581    582    583      1    1.1263e+02    5.0099e+02 ;     C5 - C6     - C7    
   581    582    598      1    1.0968e+02    3.6208e+02 ;     C5 - C6     - H12   
   581    582    599      1    1.0968e+02    3.6208e+02 ;     C5 - C6     - H13   
   582    581    596      1    1.0968e+02    3.6208e+02 ;     C6 - C5     - H10   
   582    581    597      1    1.0968e+02    3.6208e+02 ;     C6 - C5     - H11   
   582    583    584      1    1.1263e+02    5.0099e+02 ;     C6 - C7     - C8    
   582    583    600      1    1.0968e+02    3.6208e+02 ;     C6 - C7     - H14   
   582    583    601      1    1.0968e+02    3.6208e+02 ;     C6 - C7     - H15   
   583    582    598      1    1.0968e+02    3.6208e+02 ;     C7 - C6     - H12   
   583    582    599      1    1.0968e+02    3.6208e+02 ;     C7 - C6     - H13   
   583    584    585      1    1.1263e+02    5.0099e+02 ;     C7 - C8     - C9    
   583    584    602      1    1.0968e+02    3.6208e+02 ;     C7 - C8     - H16   
   583    584    603      1    1.0968e+02    3.6208e+02 ;     C7 - C8     - H17   
   584    583    600      1    1.0968e+02    3.6208e+02 ;     C8 - C7     - H14   
   584    583    601      1    1.0968e+02    3.6208e+02 ;     C8 - C7     - H15   
   584    585    586      1    1.1263e+02    5.0099e+02 ;     C8 - C9     - C10   
   584    585    604      1    1.0968e+02    3.6208e+02 ;     C8 - C9     - H18   
   584    585    605      1    1.0968e+02    3.6208e+02 ;     C8 - C9     - H19   
   585    584    602      1    1.0968e+02    3.6208e+02 ;     C9 - C8     - H16   
   585    584    603      1    1.0968e+02    3.6208e+02 ;     C9 - C8     - H17   
   585    586    606      1    1.0968e+02    3.6208e+02 ;     C9 - C10    - H20   
   585    586    607      1    1.0968e+02    3.6208e+02 ;     C9 - C10    - H21   
   585    586    608      1    1.0968e+02    3.6208e+02 ;     C9 - C10    - H22   
   586    585    604      1    1.0968e+02    3.6208e+02 ;    C10 - C9     - H18   
   586    585    605      1    1.0968e+02    3.6208e+02 ;    C10 - C9     - H19   
   587    577    588      1    1.0773e+02    2.9957e+02 ;     H1 - C1     - H2    
   587    577    589      1    1.0773e+02    2.9957e+02 ;     H1 - C1     - H3    
   588    577    589      1    1.0773e+02    2.9957e+02 ;     H2 - C1     - H3    
   590    578    591      1    1.0773e+02    2.9957e+02 ;     H4 - C2     - H5    
   592    579    593      1    1.0773e+02    2.9957e+02 ;     H6 - C3     - H7    
   594    580    595      1    1.0773e+02    2.9957e+02 ;     H8 - C4     - H9    
   596    581    597      1    1.0773e+02    2.9957e+02 ;    H10 - C5     - H11   
   598    582    599      1    1.0773e+02    2.9957e+02 ;    H12 - C6     - H13   
   600    583    601      1    1.0773e+02    2.9957e+02 ;    H14 - C7     - H15   
   602    584    603      1    1.0773e+02    2.9957e+02 ;    H16 - C8     - H17   
   604    585    605      1    1.0773e+02    2.9957e+02 ;    H18 - C9     - H19   
   606    586    607      1    1.0773e+02    2.9957e+02 ;    H20 - C10    - H21   
   606    586    608      1    1.0773e+02    2.9957e+02 ;    H20 - C10    - H22   
   607    586    608      1    1.0773e+02    2.9957e+02 ;    H21 - C10    - H22   
   609    610    611      1    1.1263e+02    5.0099e+02 ;     C1 - C2     - C3    
   609    610    622      1    1.0968e+02    3.6208e+02 ;     C1 - C2     - H4    
   609    610    623      1    1.0968e+02    3.6208e+02 ;     C1 - C2     - H5    
   610    609    619      1    1.0968e+02    3.6208e+02 ;     C2 - C1     - H1    
   610    609    620      1    1.0968e+02    3.6208e+02 ;     C2 - C1     - H2    
   610    609    621      1    1.0968e+02    3.6208e+02 ;     C2 - C1     - H3    
   610    611    612      1    1.1263e+02    5.0099e+02 ;     C2 - C3     - C4    
   610    611    624      1    1.0968e+02    3.6208e+02 ;     C2 - C3     - H6    
   610    611    625      1    1.0968e+02    3.6208e+02 ;     C2 - C3     - H7    
   611    610    622      1    1.0968e+02    3.6208e+02 ;     C3 - C2     - H4    
   611    610    623      1    1.0968e+02    3.6208e+02 ;     C3 - C2     - H5    
   611    612    613      1    1.1263e+02    5.0099e+02 ;     C3 - C4     - C5    
   611    612    626      1    1.0968e+02    3.6208e+02 ;     C3 - C4     - H8    
   611    612    627      1    1.0968e+02    3.6208e+02 ;     C3 - C4     - H9    
   612    611    624      1    1.0968e+02    3.6208e+02 ;     C4 - C3     - H6    
   612    611    625      1    1.0968e+02    3.6208e+02 ;     C4 - C3     - H7    
   612    613    614      1    1.1263e+02    5.0099e+02 ;     C4 - C5     - C6    
   612    613    628      1    1.0968e+02    3.6208e+02 ;     C4 - C5     - H10   
   612    613    629      1    1.0968e+02    3.6208e+02 ;     C4 - C5     - H11   
   613    612    626      1    1.0968e+02    3.6208e+02 ;     C5 - C4     - H8    
   613    612    627      1    1.0968e+02    3.6208e+02 ;     C5 - C4     - H9    
   613    614    615      1    1.1263e+02    5.0099e+02 ;     C5 - C6     - C7    
   613    614    630      1    1.0968e+02    3.6208e+02 ;     C5 - C6     - H12   
   613    614    631      1    1.0968e+02    3.6208e+02 ;     C5 - C6     - H13   
   614    613    628      1    1.0968e+02    3.6208e+02 ;     C6 - C5     - H10   
   614    613    629      1    1.0968e+02    3.6208e+02 ;     C6 - C5     - H11   
   614    615    616      1    1.1263e+02    5.0099e+02 ;     C6 - C7     - C8    
   614    615    632      1    1.0968e+02    3.6208e+02 ;     C6 - C7     - H14   
   614    615    633      1    1.0968e+02    3.6208e+02 ;     C6 - C7     - H15   
   615    614    630      1    1.0968e+02    3.6208e+02 ;     C7 - C6     - H12   
   615    614    631      1    1.0968e+02    3.6208e+02 ;     C7 - C6     - H13   
   615    616    617      1    1.1263e+02    5.0099e+02 ;     C7 - C8     - C9    
   615    616    634      1    1.0968e+02    3.6208e+02 ;     C7 - C8     - H16   
   615    616    635      1    1.0968e+02    3.6208e+02 ;     C7 - C8     - H17   
   616    615    632      1    1.0968e+02    3.6208e+02 ;     C8 - C7     - H14   
   616    615    633      1    1.0968e+02    3.6208e+02 ;     C8 - C7     - H15   
   616    617    618      1    1.1263e+02    5.0099e+02 ;     C8 - C9     - C10   
   616    617    636      1    1.0968e+02    3.6208e+02 ;     C8 - C9     - H18   
   616    617    637      1    1.0968e+02    3.6208e+02 ;     C8 - C9     - H19   
   617    616    634      1    1.0968e+02    3.6208e+02 ;     C9 - C8     - H16   
   617    616    635      1    1.0968e+02    3.6208e+02 ;     C9 - C8     - H17   
   617    618    638      1    1.0968e+02    3.6208e+02 ;     C9 - C10    - H20   
   617    618    639      1    1.0968e+02    3.6208e+02 ;     C9 - C10    - H21   
   617    618    640      1    1.0968e+02    3.6208e+02 ;     C9 - C10    - H22   
   618    617    636      1    1.0968e+02    3.6208e+02 ;    C10 - C9     - H18   
   618    617    637      1    1.0968e+02    3.6208e+02 ;    C10 - C9     - H19   
   619    609    620      1    1.0773e+02    2.9957e+02 ;     H1 - C1     - H2    
   619    609    621      1    1.0773e+02    2.9957e+02 ;     H1 - C1     - H3    
   620    609    621      1    1.0773e+02    2.9957e+02 ;     H2 - C1     - H3    
   622    610    623      1    1.0773e+02    2.9957e+02 ;     H4 - C2     - H5    
   624    611    625      1    1.0773e+02    2.9957e+02 ;     H6 - C3     - H7    
   626    612    627      1    1.0773e+02    2.9957e+02 ;     H8 - C4     - H9    
   628    613    629      1    1.0773e+02    2.9957e+02 ;    H10 - C5     - H11   
   630    614    631      1    1.0773e+02    2.9957e+02 ;    H12 - C6     - H13   
   632    615    633      1    1.0773e+02    2.9957e+02 ;    H14 - C7     - H15   
   634    616    635      1    1.0773e+02    2.9957e+02 ;    H16 - C8     - H17   
   636    617    637      1    1.0773e+02    2.9957e+02 ;    H18 - C9     - H19   
   638    618    639      1    1.0773e+02    2.9957e+02 ;    H20 - C10    - H21   
   638    618    640      1    1.0773e+02    2.9957e+02 ;    H20 - C10    - H22   
   639    618    640      1    1.0773e+02    2.9957e+02 ;    H21 - C10    - H22   

[ dihedrals ] ; propers
; for gromacs 4.5 or higher, using funct 9
;    i      j      k      l   func   phase     kd      pn
     1      2      3      4      9     0.00   2.17568   3 ;     C1-    C2-    C3-    C4
     1      2      3     16      9     0.00   0.54392   3 ;     C1-    C2-    C3-    H6
     1      2      3     17      9     0.00   0.54392   3 ;     C1-    C2-    C3-    H7
     2      3      4      5      9     0.00   2.17568   3 ;     C2-    C3-    C4-    C5
     2      3      4     18      9     0.00   0.54392   3 ;     C2-    C3-    C4-    H8
     2      3      4     19      9     0.00   0.54392   3 ;     C2-    C3-    C4-    H9
     3      4      5      6      9     0.00   2.17568   3 ;     C3-    C4-    C5-    C6
     3      4      5     20      9     0.00   0.54392   3 ;     C3-    C4-    C5-   H10
     3      4      5     21      9     0.00   0.54392   3 ;     C3-    C4-    C5-   H11
     4      3      2     14      9     0.00   0.54392   3 ;     C4-    C3-    C2-    H4
     4      3      2     15      9     0.00   0.54392   3 ;     C4-    C3-    C2-    H5
     4      5      6      7      9     0.00   2.17568   3 ;     C4-    C5-    C6-    C7
     4      5      6     22      9     0.00   0.54392   3 ;     C4-    C5-    C6-   H12
     4      5      6     23      9     0.00   0.54392   3 ;     C4-    C5-    C6-   H13
     5      4      3     16      9     0.00   0.54392   3 ;     C5-    C4-    C3-    H6
     5      4      3     17      9     0.00   0.54392   3 ;     C5-    C4-    C3-    H7
     5      6      7      8      9     0.00   2.17568   3 ;     C5-    C6-    C7-    C8
     5      6      7     24      9     0.00   0.54392   3 ;     C5-    C6-    C7-   H14
     5      6      7     25      9     0.00   0.54392   3 ;     C5-    C6-    C7-   H15
     6      5      4     18      9     0.00   0.54392   3 ;     C6-    C5-    C4-    H8
     6      5      4     19      9     0.00   0.54392   3 ;     C6-    C5-    C4-    H9
     6      7      8      9      9     0.00   2.17568   3 ;     C6-    C7-    C8-    C9
     6      7      8     26      9     0.00   0.54392   3 ;     C6-    C7-    C8-   H16
     6      7      8     27      9     0.00   0.54392   3 ;     C6-    C7-    C8-   H17
     7      6      5     20      9     0.00   0.54392   3 ;     C7-    C6-    C5-   H10
     7      6      5     21      9     0.00   0.54392   3 ;     C7-    C6-    C5-   H11
     7      8      9     10      9     0.00   2.17568   3 ;     C7-    C8-    C9-   C10
     7      8      9     28      9     0.00   0.54392   3 ;     C7-    C8-    C9-   H18
     7      8      9     29      9     0.00   0.54392   3 ;     C7-    C8-    C9-   H19
     8      7      6     22      9     0.00   0.54392   3 ;     C8-    C7-    C6-   H12
     8      7      6     23      9     0.00   0.54392   3 ;     C8-    C7-    C6-   H13
     8      9     10     30      9     0.00   0.54392   3 ;     C8-    C9-   C10-   H20
     8      9     10     31      9     0.00   0.54392   3 ;     C8-    C9-   C10-   H21
     8      9     10     32      9     0.00   0.54392   3 ;     C8-    C9-   C10-   H22
     9      8      7     24      9     0.00   0.54392   3 ;     C9-    C8-    C7-   H14
     9      8      7     25      9     0.00   0.54392   3 ;     C9-    C8-    C7-   H15
    10      9      8     26      9     0.00   0.54392   3 ;    C10-    C9-    C8-   H16
    10      9      8     27      9     0.00   0.54392   3 ;    C10-    C9-    C8-   H17
    11      1      2      3      9     0.00   0.54392   3 ;     H1-    C1-    C2-    C3
    11      1      2     14      9     0.00   0.50208   3 ;     H1-    C1-    C2-    H4
    11      1      2     15      9     0.00   0.50208   3 ;     H1-    C1-    C2-    H5
    12      1      2      3      9     0.00   0.54392   3 ;     H2-    C1-    C2-    C3
    12      1      2     14      9     0.00   0.50208   3 ;     H2-    C1-    C2-    H4
    12      1      2     15      9     0.00   0.50208   3 ;     H2-    C1-    C2-    H5
    13      1      2      3      9     0.00   0.54392   3 ;     H3-    C1-    C2-    C3
    13      1      2     14      9     0.00   0.50208   3 ;     H3-    C1-    C2-    H4
    13      1      2     15      9     0.00   0.50208   3 ;     H3-    C1-    C2-    H5
    14      2      3     16      9     0.00   0.50208   3 ;     H4-    C2-    C3-    H6
    14      2      3     17      9     0.00   0.50208   3 ;     H4-    C2-    C3-    H7
    15      2      3     16      9     0.00   0.50208   3 ;     H5-    C2-    C3-    H6
    15      2      3     17      9     0.00   0.50208   3 ;     H5-    C2-    C3-    H7
    16      3      4     18      9     0.00   0.50208   3 ;     H6-    C3-    C4-    H8
    16      3      4     19      9     0.00   0.50208   3 ;     H6-    C3-    C4-    H9
    17      3      4     18      9     0.00   0.50208   3 ;     H7-    C3-    C4-    H8
    17      3      4     19      9     0.00   0.50208   3 ;     H7-    C3-    C4-    H9
    18      4      5     20      9     0.00   0.50208   3 ;     H8-    C4-    C5-   H10
    18      4      5     21      9     0.00   0.50208   3 ;     H8-    C4-    C5-   H11
    19      4      5     20      9     0.00   0.50208   3 ;     H9-    C4-    C5-   H10
    19      4      5     21      9     0.00   0.50208   3 ;     H9-    C4-    C5-   H11
    20      5      6     22      9     0.00   0.50208   3 ;    H10-    C5-    C6-   H12
    20      5      6     23      9     0.00   0.50208   3 ;    H10-    C5-    C6-   H13
    21      5      6     22      9     0.00   0.50208   3 ;    H11-    C5-    C6-   H12
    21      5      6     23      9     0.00   0.50208   3 ;    H11-    C5-    C6-   H13
    22      6      7     24      9     0.00   0.50208   3 ;    H12-    C6-    C7-   H14
    22      6      7     25      9     0.00   0.50208   3 ;    H12-    C6-    C7-   H15
    23      6      7     24      9     0.00   0.50208   3 ;    H13-    C6-    C7-   H14
    23      6      7     25      9     0.00   0.50208   3 ;    H13-    C6-    C7-   H15
    24      7      8     26      9     0.00   0.50208   3 ;    H14-    C7-    C8-   H16
    24      7      8     27      9     0.00   0.50208   3 ;    H14-    C7-    C8-   H17
    25      7      8     26      9     0.00   0.50208   3 ;    H15-    C7-    C8-   H16
    25      7      8     27      9     0.00   0.50208   3 ;    H15-    C7-    C8-   H17
    26      8      9     28      9     0.00   0.50208   3 ;    H16-    C8-    C9-   H18
    26      8      9     29      9     0.00   0.50208   3 ;    H16-    C8-    C9-   H19
    27      8      9     28      9     0.00   0.50208   3 ;    H17-    C8-    C9-   H18
    27      8      9     29      9     0.00   0.50208   3 ;    H17-    C8-    C9-   H19
    28      9     10     30      9     0.00   0.50208   3 ;    H18-    C9-   C10-   H20
    28      9     10     31      9     0.00   0.50208   3 ;    H18-    C9-   C10-   H21
    28      9     10     32      9     0.00   0.50208   3 ;    H18-    C9-   C10-   H22
    29      9     10     30      9     0.00   0.50208   3 ;    H19-    C9-   C10-   H20
    29      9     10     31      9     0.00   0.50208   3 ;    H19-    C9-   C10-   H21
    29      9     10     32      9     0.00   0.50208   3 ;    H19-    C9-   C10-   H22
    33     34     35     36      9     0.00   2.17568   3 ;     C1-    C2-    C3-    C4
    33     34     35     48      9     0.00   0.54392   3 ;     C1-    C2-    C3-    H6
    33     34     35     49      9     0.00   0.54392   3 ;     C1-    C2-    C3-    H7
    34     35     36     37      9     0.00   2.17568   3 ;     C2-    C3-    C4-    C5
    34     35     36     50      9     0.00   0.54392   3 ;     C2-    C3-    C4-    H8
    34     35     36     51      9     0.00   0.54392   3 ;     C2-    C3-    C4-    H9
    35     34     33     43      9     0.00   0.54392   3 ;     C3-    C2-    C1-    H1
    35     34     33     44      9     0.00   0.54392   3 ;     C3-    C2-    C1-    H2
    35     34     33     45      9     0.00   0.54392   3 ;     C3-    C2-    C1-    H3
    35     36     37     38      9     0.00   2.17568   3 ;     C3-    C4-    C5-    C6
    35     36     37     52      9     0.00   0.54392   3 ;     C3-    C4-    C5-   H10
    35     36     37     53      9     0.00   0.54392   3 ;     C3-    C4-    C5-   H11
    36     35     34     46      9     0.00   0.54392   3 ;     C4-    C3-    C2-    H4
    36     35     34     47      9     0.00   0.54392   3 ;     C4-    C3-    C2-    H5
    36     37     38     39      9     0.00   2.17568   3 ;     C4-    C5-    C6-    C7
    36     37     38     54      9     0.00   0.54392   3 ;     C4-    C5-    C6-   H12
    36     37     38     55      9     0.00   0.54392   3 ;     C4-    C5-    C6-   H13
    37     36     35     48      9     0.00   0.54392   3 ;     C5-    C4-    C3-    H6
    37     36     35     49      9     0.00   0.54392   3 ;     C5-    C4-    C3-    H7
    37     38     39     40      9     0.00   2.17568   3 ;     C5-    C6-    C7-    C8
    37     38     39     56      9     0.00   0.54392   3 ;     C5-    C6-    C7-   H14
    37     38     39     57      9     0.00   0.54392   3 ;     C5-    C6-    C7-   H15
    38     37     36     50      9     0.00   0.54392   3 ;     C6-    C5-    C4-    H8
    38     37     36     51      9     0.00   0.54392   3 ;     C6-    C5-    C4-    H9
    38     39     40     41      9     0.00   2.17568   3 ;     C6-    C7-    C8-    C9
    38     39     40     58      9     0.00   0.54392   3 ;     C6-    C7-    C8-   H16
    38     39     40     59      9     0.00   0.54392   3 ;     C6-    C7-    C8-   H17
    39     38     37     52      9     0.00   0.54392   3 ;     C7-    C6-    C5-   H10
    39     38     37     53      9     0.00   0.54392   3 ;     C7-    C6-    C5-   H11
    39     40     41     42      9     0.00   2.17568   3 ;     C7-    C8-    C9-   C10
    39     40     41     60      9     0.00   0.54392   3 ;     C7-    C8-    C9-   H18
    39     40     41     61      9     0.00   0.54392   3 ;     C7-    C8-    C9-   H19
    40     39     38     54      9     0.00   0.54392   3 ;     C8-    C7-    C6-   H12
    40     39     38     55      9     0.00   0.54392   3 ;     C8-    C7-    C6-   H13
    40     41     42     62      9     0.00   0.54392   3 ;     C8-    C9-   C10-   H20
    40     41     42     63      9     0.00   0.54392   3 ;     C8-    C9-   C10-   H21
    40     41     42     64      9     0.00   0.54392   3 ;     C8-    C9-   C10-   H22
    41     40     39     56      9     0.00   0.54392   3 ;     C9-    C8-    C7-   H14
    41     40     39     57      9     0.00   0.54392   3 ;     C9-    C8-    C7-   H15
    42     41     40     58      9     0.00   0.54392   3 ;    C10-    C9-    C8-   H16
    42     41     40     59      9     0.00   0.54392   3 ;    C10-    C9-    C8-   H17
    43     33     34     46      9     0.00   0.50208   3 ;     H1-    C1-    C2-    H4
    43     33     34     47      9     0.00   0.50208   3 ;     H1-    C1-    C2-    H5
    44     33     34     46      9     0.00   0.50208   3 ;     H2-    C1-    C2-    H4
    44     33     34     47      9     0.00   0.50208   3 ;     H2-    C1-    C2-    H5
    45     33     34     46      9     0.00   0.50208   3 ;     H3-    C1-    C2-    H4
    45     33     34     47      9     0.00   0.50208   3 ;     H3-    C1-    C2-    H5
    46     34     35     48      9     0.00   0.50208   3 ;     H4-    C2-    C3-    H6
    46     34     35     49      9     0.00   0.50208   3 ;     H4-    C2-    C3-    H7
    47     34     35     48      9     0.00   0.50208   3 ;     H5-    C2-    C3-    H6
    47     34     35     49      9     0.00   0.50208   3 ;     H5-    C2-    C3-    H7
    48     35     36     50      9     0.00   0.50208   3 ;     H6-    C3-    C4-    H8
    48     35     36     51      9     0.00   0.50208   3 ;     H6-    C3-    C4-    H9
    49     35     36     50      9     0.00   0.50208   3 ;     H7-    C3-    C4-    H8
    49     35     36     51      9     0.00   0.50208   3 ;     H7-    C3-    C4-    H9
    50     36     37     52      9     0.00   0.50208   3 ;     H8-    C4-    C5-   H10
    50     36     37     53      9     0.00   0.50208   3 ;     H8-    C4-    C5-   H11
    51     36     37     52      9     0.00   0.50208   3 ;     H9-    C4-    C5-   H10
    51     36     37     53      9     0.00   0.50208   3 ;     H9-    C4-    C5-   H11
    52     37     38     54      9     0.00   0.50208   3 ;    H10-    C5-    C6-   H12
    52     37     38     55      9     0.00   0.50208   3 ;    H10-    C5-    C6-   H13
    53     37     38     54      9     0.00   0.50208   3 ;    H11-    C5-    C6-   H12
    53     37     38     55      9     0.00   0.50208   3 ;    H11-    C5-    C6-   H13
    54     38     39     56      9     0.00   0.50208   3 ;    H12-    C6-    C7-   H14
    54     38     39     57      9     0.00   0.50208   3 ;    H12-    C6-    C7-   H15
    55     38     39     56      9     0.00   0.50208   3 ;    H13-    C6-    C7-   H14
    55     38     39     57      9     0.00   0.50208   3 ;    H13-    C6-    C7-   H15
    56     39     40     58      9     0.00   0.50208   3 ;    H14-    C7-    C8-   H16
    56     39     40     59      9     0.00   0.50208   3 ;    H14-    C7-    C8-   H17
    57     39     40     58      9     0.00   0.50208   3 ;    H15-    C7-    C8-   H16
    57     39     40     59      9     0.00   0.50208   3 ;    H15-    C7-    C8-   H17
    58     40     41     60      9     0.00   0.50208   3 ;    H16-    C8-    C9-   H18
    58     40     41     61      9     0.00   0.50208   3 ;    H16-    C8-    C9-   H19
    59     40     41     60      9     0.00   0.50208   3 ;    H17-    C8-    C9-   H18
    59     40     41     61      9     0.00   0.50208   3 ;    H17-    C8-    C9-   H19
    60     41     42     62      9     0.00   0.50208   3 ;    H18-    C9-   C10-   H20
    60     41     42     63      9     0.00   0.50208   3 ;    H18-    C9-   C10-   H21
    60     41     42     64      9     0.00   0.50208   3 ;    H18-    C9-   C10-   H22
    61     41     42     62      9     0.00   0.50208   3 ;    H19-    C9-   C10-   H20
    61     41     42     63      9     0.00   0.50208   3 ;    H19-    C9-   C10-   H21
    61     41     42     64      9     0.00   0.50208   3 ;    H19-    C9-   C10-   H22
    65     66     67     68      9     0.00   2.17568   3 ;     C1-    C2-    C3-    C4
    65     66     67     80      9     0.00   0.54392   3 ;     C1-    C2-    C3-    H6
    65     66     67     81      9     0.00   0.54392   3 ;     C1-    C2-    C3-    H7
    66     67     68     69      9     0.00   2.17568   3 ;     C2-    C3-    C4-    C5
    66     67     68     82      9     0.00   0.54392   3 ;     C2-    C3-    C4-    H8
    66     67     68     83      9     0.00   0.54392   3 ;     C2-    C3-    C4-    H9
    67     66     65     75      9     0.00   0.54392   3 ;     C3-    C2-    C1-    H1
    67     66     65     76      9     0.00   0.54392   3 ;     C3-    C2-    C1-    H2
    67     66     65     77      9     0.00   0.54392   3 ;     C3-    C2-    C1-    H3
    67     68     69     70      9     0.00   2.17568   3 ;     C3-    C4-    C5-    C6
    67     68     69     84      9     0.00   0.54392   3 ;     C3-    C4-    C5-   H10
    67     68     69     85      9     0.00   0.54392   3 ;     C3-    C4-    C5-   H11
    68     67     66     78      9     0.00   0.54392   3 ;     C4-    C3-    C2-    H4
    68     67     66     79      9     0.00   0.54392   3 ;     C4-    C3-    C2-    H5
    68     69     70     71      9     0.00   2.17568   3 ;     C4-    C5-    C6-    C7
    68     69     70     86      9     0.00   0.54392   3 ;     C4-    C5-    C6-   H12
    68     69     70     87      9     0.00   0.54392   3 ;     C4-    C5-    C6-   H13
    69     68     67     80      9     0.00   0.54392   3 ;     C5-    C4-    C3-    H6
    69     68     67     81      9     0.00   0.54392   3 ;     C5-    C4-    C3-    H7
    69     70     71     72      9     0.00   2.17568   3 ;     C5-    C6-    C7-    C8
    69     70     71     88      9     0.00   0.54392   3 ;     C5-    C6-    C7-   H14
    69     70     71     89      9     0.00   0.54392   3 ;     C5-    C6-    C7-   H15
    70     69     68     82      9     0.00   0.54392   3 ;     C6-    C5-    C4-    H8
    70     69     68     83      9     0.00   0.54392   3 ;     C6-    C5-    C4-    H9
    70     71     72     73      9     0.00   2.17568   3 ;     C6-    C7-    C8-    C9
    70     71     72     90      9     0.00   0.54392   3 ;     C6-    C7-    C8-   H16
    70     71     72     91      9     0.00   0.54392   3 ;     C6-    C7-    C8-   H17
    71     70     69     84      9     0.00   0.54392   3 ;     C7-    C6-    C5-   H10
    71     70     69     85      9     0.00   0.54392   3 ;     C7-    C6-    C5-   H11
    71     72     73     74      9     0.00   2.17568   3 ;     C7-    C8-    C9-   C10
    71     72     73     92      9     0.00   0.54392   3 ;     C7-    C8-    C9-   H18
    71     72     73     93      9     0.00   0.54392   3 ;     C7-    C8-    C9-   H19
    72     71     70     86      9     0.00   0.54392   3 ;     C8-    C7-    C6-   H12
    72     71     70     87      9     0.00   0.54392   3 ;     C8-    C7-    C6-   H13
    72     73     74     94      9     0.00   0.54392   3 ;     C8-    C9-   C10-   H20
    72     73     74     95      9     0.00   0.54392   3 ;     C8-    C9-   C10-   H21
    72     73     74     96      9     0.00   0.54392   3 ;     C8-    C9-   C10-   H22
    73     72     71     88      9     0.00   0.54392   3 ;     C9-    C8-    C7-   H14
    73     72     71     89      9     0.00   0.54392   3 ;     C9-    C8-    C7-   H15
    74     73     72     90      9     0.00   0.54392   3 ;    C10-    C9-    C8-   H16
    74     73     72     91      9     0.00   0.54392   3 ;    C10-    C9-    C8-   H17
    75     65     66     78      9     0.00   0.50208   3 ;     H1-    C1-    C2-    H4
    75     65     66     79      9     0.00   0.50208   3 ;     H1-    C1-    C2-    H5
    76     65     66     78      9     0.00   0.50208   3 ;     H2-    C1-    C2-    H4
    76     65     66     79      9     0.00   0.50208   3 ;     H2-    C1-    C2-    H5
    77     65     66     78      9     0.00   0.50208   3 ;     H3-    C1-    C2-    H4
    77     65     66     79      9     0.00   0.50208   3 ;     H3-    C1-    C2-    H5
    78     66     67     80      9     0.00   0.50208   3 ;     H4-    C2-    C3-    H6
    78     66     67     81      9     0.00   0.50208   3 ;     H4-    C2-    C3-    H7
    79     66     67     80      9     0.00   0.50208   3 ;     H5-    C2-    C3-    H6
    79     66     67     81      9     0.00   0.50208   3 ;     H5-    C2-    C3-    H7
    80     67     68     82      9     0.00   0.50208   3 ;     H6-    C3-    C4-    H8
    80     67     68     83      9     0.00   0.50208   3 ;     H6-    C3-    C4-    H9
    81     67     68     82      9     0.00   0.50208   3 ;     H7-    C3-    C4-    H8
    81     67     68     83      9     0.00   0.50208   3 ;     H7-    C3-    C4-    H9
    82     68     69     84      9     0.00   0.50208   3 ;     H8-    C4-    C5-   H10
    82     68     69     85      9     0.00   0.50208   3 ;     H8-    C4-    C5-   H11
    83     68     69     84      9     0.00   0.50208   3 ;     H9-    C4-    C5-   H10
    83     68     69     85      9     0.00   0.50208   3 ;     H9-    C4-    C5-   H11
    84     69     70     86      9     0.00   0.50208   3 ;    H10-    C5-    C6-   H12
    84     69     70     87      9     0.00   0.50208   3 ;    H10-    C5-    C6-   H13
    85     69     70     86      9     0.00   0.50208   3 ;    H11-    C5-    C6-   H12
    85     69     70     87      9     0.00   0.50208   3 ;    H11-    C5-    C6-   H13
    86     70     71     88      9     0.00   0.50208   3 ;    H12-    C6-    C7-   H14
    86     70     71     89      9     0.00   0.50208   3 ;    H12-    C6-    C7-   H15
    87     70     71     88      9     0.00   0.50208   3 ;    H13-    C6-    C7-   H14
    87     70     71     89      9     0.00   0.50208   3 ;    H13-    C6-    C7-   H15
    88     71     72     90      9     0.00   0.50208   3 ;    H14-    C7-    C8-   H16
    88     71     72     91      9     0.00   0.50208   3 ;    H14-    C7-    C8-   H17
    89     71     72     90      9     0.00   0.50208   3 ;    H15-    C7-    C8-   H16
    89     71     72     91      9     0.00   0.50208   3 ;    H15-    C7-    C8-   H17
    90     72     73     92      9     0.00   0.50208   3 ;    H16-    C8-    C9-   H18
    90     72     73     93      9     0.00   0.50208   3 ;    H16-    C8-    C9-   H19
    91     72     73     92      9     0.00   0.50208   3 ;    H17-    C8-    C9-   H18
    91     72     73     93      9     0.00   0.50208   3 ;    H17-    C8-    C9-   H19
    92     73     74     94      9     0.00   0.50208   3 ;    H18-    C9-   C10-   H20
    92     73     74     95      9     0.00   0.50208   3 ;    H18-    C9-   C10-   H21
    92     73     74     96      9     0.00   0.50208   3 ;    H18-    C9-   C10-   H22
    93     73     74     94      9     0.00   0.50208   3 ;    H19-    C9-   C10-   H20
    93     73     74     95      9     0.00   0.50208   3 ;    H19-    C9-   C10-   H21
    93     73     74     96      9     0.00   0.50208   3 ;    H19-    C9-   C10-   H22
    97     98     99    100      9     0.00   2.17568   3 ;     C1-    C2-    C3-    C4
    97     98     99    112      9     0.00   0.54392   3 ;     C1-    C2-    C3-    H6
    97     98     99    113      9     0.00   0.54392   3 ;     C1-    C2-    C3-    H7
    98     99    100    101      9     0.00   2.17568   3 ;     C2-    C3-    C4-    C5
    98     99    100    114      9     0.00   0.54392   3 ;     C2-    C3-    C4-    H8
    98     99    100    115      9     0.00   0.54392   3 ;     C2-    C3-    C4-    H9
    99     98     97    107      9     0.00   0.54392   3 ;     C3-    C2-    C1-    H1
    99     98     97    108      9     0.00   0.54392   3 ;     C3-    C2-    C1-    H2
    99     98     97    109      9     0.00   0.54392   3 ;     C3-    C2-    C1-    H3
    99    100    101    102      9     0.00   2.17568   3 ;     C3-    C4-    C5-    C6
    99    100    101    116      9     0.00   0.54392   3 ;     C3-    C4-    C5-   H10
    99    100    101    117      9     0.00   0.54392   3 ;     C3-    C4-    C5-   H11
   100     99     98    110      9     0.00   0.54392   3 ;     C4-    C3-    C2-    H4
   100     99     98    111      9     0.00   0.54392   3 ;     C4-    C3-    C2-    H5
   100    101    102    103      9     0.00   2.17568   3 ;     C4-    C5-    C6-    C7
   100    101    102    118      9     0.00   0.54392   3 ;     C4-    C5-    C6-   H12
   100    101    102    119      9     0.00   0.54392   3 ;     C4-    C5-    C6-   H13
   101    100     99    112      9     0.00   0.54392   3 ;     C5-    C4-    C3-    H6
   101    100     99    113      9     0.00   0.54392   3 ;     C5-    C4-    C3-    H7
   101    102    103    104      9     0.00   2.17568   3 ;     C5-    C6-    C7-    C8
   101    102    103    120      9     0.00   0.54392   3 ;     C5-    C6-    C7-   H14
   101    102    103    121      9     0.00   0.54392   3 ;     C5-    C6-    C7-   H15
   102    101    100    114      9     0.00   0.54392   3 ;     C6-    C5-    C4-    H8
   102    101    100    115      9     0.00   0.54392   3 ;     C6-    C5-    C4-    H9
   102    103    104    105      9     0.00   2.17568   3 ;     C6-    C7-    C8-    C9
   102    103    104    122      9     0.00   0.54392   3 ;     C6-    C7-    C8-   H16
   102    103    104    123      9     0.00   0.54392   3 ;     C6-    C7-    C8-   H17
   103    102    101    116      9     0.00   0.54392   3 ;     C7-    C6-    C5-   H10
   103    102    101    117      9     0.00   0.54392   3 ;     C7-    C6-    C5-   H11
   103    104    105    106      9     0.00   2.17568   3 ;     C7-    C8-    C9-   C10
   103    104    105    124      9     0.00   0.54392   3 ;     C7-    C8-    C9-   H18
   103    104    105    125      9     0.00   0.54392   3 ;     C7-    C8-    C9-   H19
   104    103    102    118      9     0.00   0.54392   3 ;     C8-    C7-    C6-   H12
   104    103    102    119      9     0.00   0.54392   3 ;     C8-    C7-    C6-   H13
   104    105    106    126      9     0.00   0.54392   3 ;     C8-    C9-   C10-   H20
   104    105    106    127      9     0.00   0.54392   3 ;     C8-    C9-   C10-   H21
   104    105    106    128      9     0.00   0.54392   3 ;     C8-    C9-   C10-   H22
   105    104    103    120      9     0.00   0.54392   3 ;     C9-    C8-    C7-   H14
   105    104    103    121      9     0.00   0.54392   3 ;     C9-    C8-    C7-   H15
   106    105    104    122      9     0.00   0.54392   3 ;    C10-    C9-    C8-   H16
   106    105    104    123      9     0.00   0.54392   3 ;    C10-    C9-    C8-   H17
   107     97     98    110      9     0.00   0.50208   3 ;     H1-    C1-    C2-    H4
   107     97     98    111      9     0.00   0.50208   3 ;     H1-    C1-    C2-    H5
   108     97     98    110      9     0.00   0.50208   3 ;     H2-    C1-    C2-    H4
   108     97     98    111      9     0.00   0.50208   3 ;     H2-    C1-    C2-    H5
   109     97     98    110      9     0.00   0.50208   3 ;     H3-    C1-    C2-    H4
   109     97     98    111      9     0.00   0.50208   3 ;     H3-    C1-    C2-    H5
   110     98     99    112      9     0.00   0.50208   3 ;     H4-    C2-    C3-    H6
   110     98     99    113      9     0.00   0.50208   3 ;     H4-    C2-    C3-    H7
   111     98     99    112      9     0.00   0.50208   3 ;     H5-    C2-    C3-    H6
   111     98     99    113      9     0.00   0.50208   3 ;     H5-    C2-    C3-    H7
   112     99    100    114      9     0.00   0.50208   3 ;     H6-    C3-    C4-    H8
   112     99    100    115      9     0.00   0.50208   3 ;     H6-    C3-    C4-    H9
   113     99    100    114      9     0.00   0.50208   3 ;     H7-    C3-    C4-    H8
   113     99    100    115      9     0.00   0.50208   3 ;     H7-    C3-    C4-    H9
   114    100    101    116      9     0.00   0.50208   3 ;     H8-    C4-    C5-   H10
   114    100    101    117      9     0.00   0.50208   3 ;     H8-    C4-    C5-   H11
   115    100    101    116      9     0.00   0.50208   3 ;     H9-    C4-    C5-   H10
   115    100    101    117      9     0.00   0.50208   3 ;     H9-    C4-    C5-   H11
   116    101    102    118      9     0.00   0.50208   3 ;    H10-    C5-    C6-   H12
   116    101    102    119      9     0.00   0.50208   3 ;    H10-    C5-    C6-   H13
   117    101    102    118      9     0.00   0.50208   3 ;    H11-    C5-    C6-   H12
   117    101    102    119      9     0.00   0.50208   3 ;    H11-    C5-    C6-   H13
   118    102    103    120      9     0.00   0.50208   3 ;    H12-    C6-    C7-   H14
   118    102    103    121      9     0.00   0.50208   3 ;    H12-    C6-    C7-   H15
   119    102    103    120      9     0.00   0.50208   3 ;    H13-    C6-    C7-   H14
   119    102    103    121      9     0.00   0.50208   3 ;    H13-    C6-    C7-   H15
   120    103    104    122      9     0.00   0.50208   3 ;    H14-    C7-    C8-   H16
   120    103    104    123      9     0.00   0.50208   3 ;    H14-    C7-    C8-   H17
   121    103    104    122      9     0.00   0.50208   3 ;    H15-    C7-    C8-   H16
   121    103    104    123      9     0.00   0.50208   3 ;    H15-    C7-    C8-   H17
   122    104    105    124      9     0.00   0.50208   3 ;    H16-    C8-    C9-   H18
   122    104    105    125      9     0.00   0.50208   3 ;    H16-    C8-    C9-   H19
   123    104    105    124      9     0.00   0.50208   3 ;    H17-    C8-    C9-   H18
   123    104    105    125      9     0.00   0.50208   3 ;    H17-    C8-    C9-   H19
   124    105    106    126      9     0.00   0.50208   3 ;    H18-    C9-   C10-   H20
   124    105    106    127      9     0.00   0.50208   3 ;    H18-    C9-   C10-   H21
   124    105    106    128      9     0.00   0.50208   3 ;    H18-    C9-   C10-   H22
   125    105    106    126      9     0.00   0.50208   3 ;    H19-    C9-   C10-   H20
   125    105    106    127      9     0.00   0.50208   3 ;    H19-    C9-   C10-   H21
   125    105    106    128      9     0.00   0.50208   3 ;    H19-    C9-   C10-   H22
   129    130    131    132      9     0.00   2.17568   3 ;     C1-    C2-    C3-    C4
   129    130    131    144      9     0.00   0.54392   3 ;     C1-    C2-    C3-    H6
   129    130    131    145      9     0.00   0.54392   3 ;     C1-    C2-    C3-    H7
   130    131    132    133      9     0.00   2.17568   3 ;     C2-    C3-    C4-    C5
   130    131    132    146      9     0.00   0.54392   3 ;     C2-    C3-    C4-    H8
   130    131    132    147      9     0.00   0.54392   3 ;     C2-    C3-    C4-    H9
   131    130    129    139      9     0.00   0.54392   3 ;     C3-    C2-    C1-    H1
   131    130    129    140      9     0.00   0.54392   3 ;     C3-    C2-    C1-    H2
   131    130    129    141      9     0.00   0.54392   3 ;     C3-    C2-    C1-    H3
   131    132    133    134      9     0.00   2.17568   3 ;     C3-    C4-    C5-    C6
   131    132    133    148      9     0.00   0.54392   3 ;     C3-    C4-    C5-   H10
   131    132    133    149      9     0.00   0.54392   3 ;     C3-    C4-    C5-   H11
   132    131    130    142      9     0.00   0.54392   3 ;     C4-    C3-    C2-    H4
   132    131    130    143      9     0.00   0.54392   3 ;     C4-    C3-    C2-    H5
   132    133    134    135      9     0.00   2.17568   3 ;     C4-    C5-    C6-    C7
   132    133    134    150      9     0.00   0.54392   3 ;     C4-    C5-    C6-   H12
   132    133    134    151      9     0.00   0.54392   3 ;     C4-    C5-    C6-   H13
   133    132    131    144      9     0.00   0.54392   3 ;     C5-    C4-    C3-    H6
   133    132    131    145      9     0.00   0.54392   3 ;     C5-    C4-    C3-    H7
   133    134    135    136      9     0.00   2.17568   3 ;     C5-    C6-    C7-    C8
   133    134    135    152      9     0.00   0.54392   3 ;     C5-    C6-    C7-   H14
   133    134    135    153      9     0.00   0.54392   3 ;     C5-    C6-    C7-   H15
   134    133    132    146      9     0.00   0.54392   3 ;     C6-    C5-    C4-    H8
   134    133    132    147      9     0.00   0.54392   3 ;     C6-    C5-    C4-    H9
   134    135    136    137      9     0.00   2.17568   3 ;     C6-    C7-    C8-    C9
   134    135    136    154      9     0.00   0.54392   3 ;     C6-    C7-    C8-   H16
   134    135    136    155      9     0.00   0.54392   3 ;     C6-    C7-    C8-   H17
   135    134    133    148      9     0.00   0.54392   3 ;     C7-    C6-    C5-   H10
   135    134    133    149      9     0.00   0.54392   3 ;     C7-    C6-    C5-   H11
   135    136    137    138      9     0.00   2.17568   3 ;     C7-    C8-    C9-   C10
   135    136    137    156      9     0.00   0.54392   3 ;     C7-    C8-    C9-   H18
   135    136    137    157      9     0.00   0.54392   3 ;     C7-    C8-    C9-   H19
   136    135    134    150      9     0.00   0.54392   3 ;     C8-    C7-    C6-   H12
   136    135    134    151      9     0.00   0.54392   3 ;     C8-    C7-    C6-   H13
   136    137    138    158      9     0.00   0.54392   3 ;     C8-    C9-   C10-   H20
   136    137    138    159      9     0.00   0.54392   3 ;     C8-    C9-   C10-   H21
   136    137    138    160      9     0.00   0.54392   3 ;     C8-    C9-   C10-   H22
   137    136    135    152      9     0.00   0.54392   3 ;     C9-    C8-    C7-   H14
   137    136    135    153      9     0.00   0.54392   3 ;     C9-    C8-    C7-   H15
   138    137    136    154      9     0.00   0.54392   3 ;    C10-    C9-    C8-   H16
   138    137    136    155      9     0.00   0.54392   3 ;    C10-    C9-    C8-   H17
   139    129    130    142      9     0.00   0.50208   3 ;     H1-    C1-    C2-    H4
   139    129    130    143      9     0.00   0.50208   3 ;     H1-    C1-    C2-    H5
   140    129    130    142      9     0.00   0.50208   3 ;     H2-    C1-    C2-    H4
   140    129    130    143      9     0.00   0.50208   3 ;     H2-    C1-    C2-    H5
   141    129    130    142      9     0.00   0.50208   3 ;     H3-    C1-    C2-    H4
   141    129    130    143      9     0.00   0.50208   3 ;     H3-    C1-    C2-    H5
   142    130    131    144      9     0.00   0.50208   3 ;     H4-    C2-    C3-    H6
   142    130    131    145      9     0.00   0.50208   3 ;     H4-    C2-    C3-    H7
   143    130    131    144      9     0.00   0.50208   3 ;     H5-    C2-    C3-    H6
   143    130    131    145      9     0.00   0.50208   3 ;     H5-    C2-    C3-    H7
   144    131    132    146      9     0.00   0.50208   3 ;     H6-    C3-    C4-    H8
   144    131    132    147      9     0.00   0.50208   3 ;     H6-    C3-    C4-    H9
   145    131    132    146      9     0.00   0.50208   3 ;     H7-    C3-    C4-    H8
   145    131    132    147      9     0.00   0.50208   3 ;     H7-    C3-    C4-    H9
   146    132    133    148      9     0.00   0.50208   3 ;     H8-    C4-    C5-   H10
   146    132    133    149      9     0.00   0.50208   3 ;     H8-    C4-    C5-   H11
   147    132    133    148      9     0.00   0.50208   3 ;     H9-    C4-    C5-   H10
   147    132    133    149      9     0.00   0.50208   3 ;     H9-    C4-    C5-   H11
   148    133    134    150      9     0.00   0.50208   3 ;    H10-    C5-    C6-   H12
   148    133    134    151      9     0.00   0.50208   3 ;    H10-    C5-    C6-   H13
   149    133    134    150      9     0.00   0.50208   3 ;    H11-    C5-    C6-   H12
   149    133    134    151      9     0.00   0.50208   3 ;    H11-    C5-    C6-   H13
   150    134    135    152      9     0.00   0.50208   3 ;    H12-    C6-    C7-   H14
   150    134    135    153      9     0.00   0.50208   3 ;    H12-    C6-    C7-   H15
   151    134    135    152      9     0.00   0.50208   3 ;    H13-    C6-    C7-   H14
   151    134    135    153      9     0.00   0.50208   3 ;    H13-    C6-    C7-   H15
   152    135    136    154      9     0.00   0.50208   3 ;    H14-    C7-    C8-   H16
   152    135    136    155      9     0.00   0.50208   3 ;    H14-    C7-    C8-   H17
   153    135    136    154      9     0.00   0.50208   3 ;    H15-    C7-    C8-   H16
   153    135    136    155      9     0.00   0.50208   3 ;    H15-    C7-    C8-   H17
   154    136    137    156      9     0.00   0.50208   3 ;    H16-    C8-    C9-   H18
   154    136    137    157      9     0.00   0.50208   3 ;    H16-    C8-    C9-   H19
   155    136    137    156      9     0.00   0.50208   3 ;    H17-    C8-    C9-   H18
   155    136    137    157      9     0.00   0.50208   3 ;    H17-    C8-    C9-   H19
   156    137    138    158      9     0.00   0.50208   3 ;    H18-    C9-   C10-   H20
   156    137    138    159      9     0.00   0.50208   3 ;    H18-    C9-   C10-   H21
   156    137    138    160      9     0.00   0.50208   3 ;    H18-    C9-   C10-   H22
   157    137    138    158      9     0.00   0.50208   3 ;    H19-    C9-   C10-   H20
   157    137    138    159      9     0.00   0.50208   3 ;    H19-    C9-   C10-   H21
   157    137    138    160      9     0.00   0.50208   3 ;    H19-    C9-   C10-   H22
   161    162    163    164      9     0.00   2.17568   3 ;     C1-    C2-    C3-    C4
   161    162    163    176      9     0.00   0.54392   3 ;     C1-    C2-    C3-    H6
   161    162    163    177      9     0.00   0.54392   3 ;     C1-    C2-    C3-    H7
   162    163    164    165      9     0.00   2.17568   3 ;     C2-    C3-    C4-    C5
   162    163    164    178      9     0.00   0.54392   3 ;     C2-    C3-    C4-    H8
   162    163    164    179      9     0.00   0.54392   3 ;     C2-    C3-    C4-    H9
   163    162    161    171      9     0.00   0.54392   3 ;     C3-    C2-    C1-    H1
   163    162    161    172      9     0.00   0.54392   3 ;     C3-    C2-    C1-    H2
   163    162    161    173      9     0.00   0.54392   3 ;     C3-    C2-    C1-    H3
   163    164    165    166      9     0.00   2.17568   3 ;     C3-    C4-    C5-    C6
   163    164    165    180      9     0.00   0.54392   3 ;     C3-    C4-    C5-   H10
   163    164    165    181      9     0.00   0.54392   3 ;     C3-    C4-    C5-   H11
   164    163    162    174      9     0.00   0.54392   3 ;     C4-    C3-    C2-    H4
   164    163    162    175      9     0.00   0.54392   3 ;     C4-    C3-    C2-    H5
   164    165    166    167      9     0.00   2.17568   3 ;     C4-    C5-    C6-    C7
   164    165    166    182      9     0.00   0.54392   3 ;     C4-    C5-    C6-   H12
   164    165    166    183      9     0.00   0.54392   3 ;     C4-    C5-    C6-   H13
   165    164    163    176      9     0.00   0.54392   3 ;     C5-    C4-    C3-    H6
   165    164    163    177      9     0.00   0.54392   3 ;     C5-    C4-    C3-    H7
   165    166    167    168      9     0.00   2.17568   3 ;     C5-    C6-    C7-    C8
   165    166    167    184      9     0.00   0.54392   3 ;     C5-    C6-    C7-   H14
   165    166    167    185      9     0.00   0.54392   3 ;     C5-    C6-    C7-   H15
   166    165    164    178      9     0.00   0.54392   3 ;     C6-    C5-    C4-    H8
   166    165    164    179      9     0.00   0.54392   3 ;     C6-    C5-    C4-    H9
   166    167    168    169      9     0.00   2.17568   3 ;     C6-    C7-    C8-    C9
   166    167    168    186      9     0.00   0.54392   3 ;     C6-    C7-    C8-   H16
   166    167    168    187      9     0.00   0.54392   3 ;     C6-    C7-    C8-   H17
   167    166    165    180      9     0.00   0.54392   3 ;     C7-    C6-    C5-   H10
   167    166    165    181      9     0.00   0.54392   3 ;     C7-    C6-    C5-   H11
   167    168    169    170      9     0.00   2.17568   3 ;     C7-    C8-    C9-   C10
   167    168    169    188      9     0.00   0.54392   3 ;     C7-    C8-    C9-   H18
   167    168    169    189      9     0.00   0.54392   3 ;     C7-    C8-    C9-   H19
   168    167    166    182      9     0.00   0.54392   3 ;     C8-    C7-    C6-   H12
   168    167    166    183      9     0.00   0.54392   3 ;     C8-    C7-    C6-   H13
   168    169    170    190      9     0.00   0.54392   3 ;     C8-    C9-   C10-   H20
   168    169    170    191      9     0.00   0.54392   3 ;     C8-    C9-   C10-   H21
   168    169    170    192      9     0.00   0.54392   3 ;     C8-    C9-   C10-   H22
   169    168    167    184      9     0.00   0.54392   3 ;     C9-    C8-    C7-   H14
   169    168    167    185      9     0.00   0.54392   3 ;     C9-    C8-    C7-   H15
   170    169    168    186      9     0.00   0.54392   3 ;    C10-    C9-    C8-   H16
   170    169    168    187      9     0.00   0.54392   3 ;    C10-    C9-    C8-   H17
   171    161    162    174      9     0.00   0.50208   3 ;     H1-    C1-    C2-    H4
   171    161    162    175      9     0.00   0.50208   3 ;     H1-    C1-    C2-    H5
   172    161    162    174      9     0.00   0.50208   3 ;     H2-    C1-    C2-    H4
   172    161    162    175      9     0.00   0.50208   3 ;     H2-    C1-    C2-    H5
   173    161    162    174      9     0.00   0.50208   3 ;     H3-    C1-    C2-    H4
   173    161    162    175      9     0.00   0.50208   3 ;     H3-    C1-    C2-    H5
   174    162    163    176      9     0.00   0.50208   3 ;     H4-    C2-    C3-    H6
   174    162    163    177      9     0.00   0.50208   3 ;     H4-    C2-    C3-    H7
   175    162    163    176      9     0.00   0.50208   3 ;     H5-    C2-    C3-    H6
   175    162    163    177      9     0.00   0.50208   3 ;     H5-    C2-    C3-    H7
   176    163    164    178      9     0.00   0.50208   3 ;     H6-    C3-    C4-    H8
   176    163    164    179      9     0.00   0.50208   3 ;     H6-    C3-    C4-    H9
   177    163    164    178      9     0.00   0.50208   3 ;     H7-    C3-    C4-    H8
   177    163    164    179      9     0.00   0.50208   3 ;     H7-    C3-    C4-    H9
   178    164    165    180      9     0.00   0.50208   3 ;     H8-    C4-    C5-   H10
   178    164    165    181      9     0.00   0.50208   3 ;     H8-    C4-    C5-   H11
   179    164    165    180      9     0.00   0.50208   3 ;     H9-    C4-    C5-   H10
   179    164    165    181      9     0.00   0.50208   3 ;     H9-    C4-    C5-   H11
   180    165    166    182      9     0.00   0.50208   3 ;    H10-    C5-    C6-   H12
   180    165    166    183      9     0.00   0.50208   3 ;    H10-    C5-    C6-   H13
   181    165    166    182      9     0.00   0.50208   3 ;    H11-    C5-    C6-   H12
   181    165    166    183      9     0.00   0.50208   3 ;    H11-    C5-    C6-   H13
   182    166    167    184      9     0.00   0.50208   3 ;    H12-    C6-    C7-   H14
   182    166    167    185      9     0.00   0.50208   3 ;    H12-    C6-    C7-   H15
   183    166    167    184      9     0.00   0.50208   3 ;    H13-    C6-    C7-   H14
   183    166    167    185      9     0.00   0.50208   3 ;    H13-    C6-    C7-   H15
   184    167    168    186      9     0.00   0.50208   3 ;    H14-    C7-    C8-   H16
   184    167    168    187      9     0.00   0.50208   3 ;    H14-    C7-    C8-   H17
   185    167    168    186      9     0.00   0.50208   3 ;    H15-    C7-    C8-   H16
   185    167    168    187      9     0.00   0.50208   3 ;    H15-    C7-    C8-   H17
   186    168    169    188      9     0.00   0.50208   3 ;    H16-    C8-    C9-   H18
   186    168    169    189      9     0.00   0.50208   3 ;    H16-    C8-    C9-   H19
   187    168    169    188      9     0.00   0.50208   3 ;    H17-    C8-    C9-   H18
   187    168    169    189      9     0.00   0.50208   3 ;    H17-    C8-    C9-   H19
   188    169    170    190      9     0.00   0.50208   3 ;    H18-    C9-   C10-   H20
   188    169    170    191      9     0.00   0.50208   3 ;    H18-    C9-   C10-   H21
   188    169    170    192      9     0.00   0.50208   3 ;    H18-    C9-   C10-   H22
   189    169    170    190      9     0.00   0.50208   3 ;    H19-    C9-   C10-   H20
   189    169    170    191      9     0.00   0.50208   3 ;    H19-    C9-   C10-   H21
   189    169    170    192      9     0.00   0.50208   3 ;    H19-    C9-   C10-   H22
   193    194    195    196      9     0.00   2.17568   3 ;     C1-    C2-    C3-    C4
   193    194    195    208      9     0.00   0.54392   3 ;     C1-    C2-    C3-    H6
   193    194    195    209      9     0.00   0.54392   3 ;     C1-    C2-    C3-    H7
   194    195    196    197      9     0.00   2.17568   3 ;     C2-    C3-    C4-    C5
   194    195    196    210      9     0.00   0.54392   3 ;     C2-    C3-    C4-    H8
   194    195    196    211      9     0.00   0.54392   3 ;     C2-    C3-    C4-    H9
   195    194    193    203      9     0.00   0.54392   3 ;     C3-    C2-    C1-    H1
   195    194    193    204      9     0.00   0.54392   3 ;     C3-    C2-    C1-    H2
   195    194    193    205      9     0.00   0.54392   3 ;     C3-    C2-    C1-    H3
   195    196    197    198      9     0.00   2.17568   3 ;     C3-    C4-    C5-    C6
   195    196    197    212      9     0.00   0.54392   3 ;     C3-    C4-    C5-   H10
   195    196    197    213      9     0.00   0.54392   3 ;     C3-    C4-    C5-   H11
   196    195    194    206      9     0.00   0.54392   3 ;     C4-    C3-    C2-    H4
   196    195    194    207      9     0.00   0.54392   3 ;     C4-    C3-    C2-    H5
   196    197    198    199      9     0.00   2.17568   3 ;     C4-    C5-    C6-    C7
   196    197    198    214      9     0.00   0.54392   3 ;     C4-    C5-    C6-   H12
   196    197    198    215      9     0.00   0.54392   3 ;     C4-    C5-    C6-   H13
   197    196    195    208      9     0.00   0.54392   3 ;     C5-    C4-    C3-    H6
   197    196    195    209      9     0.00   0.54392   3 ;     C5-    C4-    C3-    H7
   197    198    199    200      9     0.00   2.17568   3 ;     C5-    C6-    C7-    C8
   197    198    199    216      9     0.00   0.54392   3 ;     C5-    C6-    C7-   H14
   197    198    199    217      9     0.00   0.54392   3 ;     C5-    C6-    C7-   H15
   198    197    196    210      9     0.00   0.54392   3 ;     C6-    C5-    C4-    H8
   198    197    196    211      9     0.00   0.54392   3 ;     C6-    C5-    C4-    H9
   198    199    200    201      9     0.00   2.17568   3 ;     C6-    C7-    C8-    C9
   198    199    200    218      9     0.00   0.54392   3 ;     C6-    C7-    C8-   H16
   198    199    200    219      9     0.00   0.54392   3 ;     C6-    C7-    C8-   H17
   199    198    197    212      9     0.00   0.54392   3 ;     C7-    C6-    C5-   H10
   199    198    197    213      9     0.00   0.54392   3 ;     C7-    C6-    C5-   H11
   199    200    201    202      9     0.00   2.17568   3 ;     C7-    C8-    C9-   C10
   199    200    201    220      9     0.00   0.54392   3 ;     C7-    C8-    C9-   H18
   199    200    201    221      9     0.00   0.54392   3 ;     C7-    C8-    C9-   H19
   200    199    198    214      9     0.00   0.54392   3 ;     C8-    C7-    C6-   H12
   200    199    198    215      9     0.00   0.54392   3 ;     C8-    C7-    C6-   H13
   200    201    202    222      9     0.00   0.54392   3 ;     C8-    C9-   C10-   H20
   200    201    202    223      9     0.00   0.54392   3 ;     C8-    C9-   C10-   H21
   200    201    202    224      9     0.00   0.54392   3 ;     C8-    C9-   C10-   H22
   201    200    199    216      9     0.00   0.54392   3 ;     C9-    C8-    C7-   H14
   201    200    199    217      9     0.00   0.54392   3 ;     C9-    C8-    C7-   H15
   202    201    200    218      9     0.00   0.54392   3 ;    C10-    C9-    C8-   H16
   202    201    200    219      9     0.00   0.54392   3 ;    C10-    C9-    C8-   H17
   203    193    194    206      9     0.00   0.50208   3 ;     H1-    C1-    C2-    H4
   203    193    194    207      9     0.00   0.50208   3 ;     H1-    C1-    C2-    H5
   204    193    194    206      9     0.00   0.50208   3 ;     H2-    C1-    C2-    H4
   204    193    194    207      9     0.00   0.50208   3 ;     H2-    C1-    C2-    H5
   205    193    194    206      9     0.00   0.50208   3 ;     H3-    C1-    C2-    H4
   205    193    194    207      9     0.00   0.50208   3 ;     H3-    C1-    C2-    H5
   206    194    195    208      9     0.00   0.50208   3 ;     H4-    C2-    C3-    H6
   206    194    195    209      9     0.00   0.50208   3 ;     H4-    C2-    C3-    H7
   207    194    195    208      9     0.00   0.50208   3 ;     H5-    C2-    C3-    H6
   207    194    195    209      9     0.00   0.50208   3 ;     H5-    C2-    C3-    H7
   208    195    196    210      9     0.00   0.50208   3 ;     H6-    C3-    C4-    H8
   208    195    196    211      9     0.00   0.50208   3 ;     H6-    C3-    C4-    H9
   209    195    196    210      9     0.00   0.50208   3 ;     H7-    C3-    C4-    H8
   209    195    196    211      9     0.00   0.50208   3 ;     H7-    C3-    C4-    H9
   210    196    197    212      9     0.00   0.50208   3 ;     H8-    C4-    C5-   H10
   210    196    197    213      9     0.00   0.50208   3 ;     H8-    C4-    C5-   H11
   211    196    197    212      9     0.00   0.50208   3 ;     H9-    C4-    C5-   H10
   211    196    197    213      9     0.00   0.50208   3 ;     H9-    C4-    C5-   H11
   212    197    198    214      9     0.00   0.50208   3 ;    H10-    C5-    C6-   H12
   212    197    198    215      9     0.00   0.50208   3 ;    H10-    C5-    C6-   H13
   213    197    198    214      9     0.00   0.50208   3 ;    H11-    C5-    C6-   H12
   213    197    198    215      9     0.00   0.50208   3 ;    H11-    C5-    C6-   H13
   214    198    199    216      9     0.00   0.50208   3 ;    H12-    C6-    C7-   H14
   214    198    199    217      9     0.00   0.50208   3 ;    H12-    C6-    C7-   H15
   215    198    199    216      9     0.00   0.50208   3 ;    H13-    C6-    C7-   H14
   215    198    199    217      9     0.00   0.50208   3 ;    H13-    C6-    C7-   H15
   216    199    200    218      9     0.00   0.50208   3 ;    H14-    C7-    C8-   H16
   216    199    200    219      9     0.00   0.50208   3 ;    H14-    C7-    C8-   H17
   217    199    200    218      9     0.00   0.50208   3 ;    H15-    C7-    C8-   H16
   217    199    200    219      9     0.00   0.50208   3 ;    H15-    C7-    C8-   H17
   218    200    201    220      9     0.00   0.50208   3 ;    H16-    C8-    C9-   H18
   218    200    201    221      9     0.00   0.50208   3 ;    H16-    C8-    C9-   H19
   219    200    201    220      9     0.00   0.50208   3 ;    H17-    C8-    C9-   H18
   219    200    201    221      9     0.00   0.50208   3 ;    H17-    C8-    C9-   H19
   220    201    202    222      9     0.00   0.50208   3 ;    H18-    C9-   C10-   H20
   220    201    202    223      9     0.00   0.50208   3 ;    H18-    C9-   C10-   H21
   220    201    202    224      9     0.00   0.50208   3 ;    H18-    C9-   C10-   H22
   221    201    202    222      9     0.00   0.50208   3 ;    H19-    C9-   C10-   H20
   221    201    202    223      9     0.00   0.50208   3 ;    H19-    C9-   C10-   H21
   221    201    202    224      9     0.00   0.50208   3 ;    H19-    C9-   C10-   H22
   225    226    227    228      9     0.00   2.17568   3 ;     C1-    C2-    C3-    C4
   225    226    227    240      9     0.00   0.54392   3 ;     C1-    C2-    C3-    H6
   225    226    227    241      9     0.00   0.54392   3 ;     C1-    C2-    C3-    H7
   226    227    228    229      9     0.00   2.17568   3 ;     C2-    C3-    C4-    C5
   226    227    228    242      9     0.00   0.54392   3 ;     C2-    C3-    C4-    H8
   226    227    228    243      9     0.00   0.54392   3 ;     C2-    C3-    C4-    H9
   227    226    225    235      9     0.00   0.54392   3 ;     C3-    C2-    C1-    H1
   227    226    225    236      9     0.00   0.54392   3 ;     C3-    C2-    C1-    H2
   227    226    225    237      9     0.00   0.54392   3 ;     C3-    C2-    C1-    H3
   227    228    229    230      9     0.00   2.17568   3 ;     C3-    C4-    C5-    C6
   227    228    229    244      9     0.00   0.54392   3 ;     C3-    C4-    C5-   H10
   227    228    229    245      9     0.00   0.54392   3 ;     C3-    C4-    C5-   H11
   228    227    226    238      9     0.00   0.54392   3 ;     C4-    C3-    C2-    H4
   228    227    226    239      9     0.00   0.54392   3 ;     C4-    C3-    C2-    H5
   228    229    230    231      9     0.00   2.17568   3 ;     C4-    C5-    C6-    C7
   228    229    230    246      9     0.00   0.54392   3 ;     C4-    C5-    C6-   H12
   228    229    230    247      9     0.00   0.54392   3 ;     C4-    C5-    C6-   H13
   229    228    227    240      9     0.00   0.54392   3 ;     C5-    C4-    C3-    H6
   229    228    227    241      9     0.00   0.54392   3 ;     C5-    C4-    C3-    H7
   229    230    231    232      9     0.00   2.17568   3 ;     C5-    C6-    C7-    C8
   229    230    231    248      9     0.00   0.54392   3 ;     C5-    C6-    C7-   H14
   229    230    231    249      9     0.00   0.54392   3 ;     C5-    C6-    C7-   H15
   230    229    228    242      9     0.00   0.54392   3 ;     C6-    C5-    C4-    H8
   230    229    228    243      9     0.00   0.54392   3 ;     C6-    C5-    C4-    H9
   230    231    232    233      9     0.00   2.17568   3 ;     C6-    C7-    C8-    C9
   230    231    232    250      9     0.00   0.54392   3 ;     C6-    C7-    C8-   H16
   230    231    232    251      9     0.00   0.54392   3 ;     C6-    C7-    C8-   H17
   231    230    229    244      9     0.00   0.54392   3 ;     C7-    C6-    C5-   H10
   231    230    229    245      9     0.00   0.54392   3 ;     C7-    C6-    C5-   H11
   231    232    233    234      9     0.00   2.17568   3 ;     C7-    C8-    C9-   C10
   231    232    233    252      9     0.00   0.54392   3 ;     C7-    C8-    C9-   H18
   231    232    233    253      9     0.00   0.54392   3 ;     C7-    C8-    C9-   H19
   232    231    230    246      9     0.00   0.54392   3 ;     C8-    C7-    C6-   H12
   232    231    230    247      9     0.00   0.54392   3 ;     C8-    C7-    C6-   H13
   232    233    234    254      9     0.00   0.54392   3 ;     C8-    C9-   C10-   H20
   232    233    234    255      9     0.00   0.54392   3 ;     C8-    C9-   C10-   H21
   232    233    234    256      9     0.00   0.54392   3 ;     C8-    C9-   C10-   H22
   233    232    231    248      9     0.00   0.54392   3 ;     C9-    C8-    C7-   H14
   233    232    231    249      9     0.00   0.54392   3 ;     C9-    C8-    C7-   H15
   234    233    232    250      9     0.00   0.54392   3 ;    C10-    C9-    C8-   H16
   234    233    232    251      9     0.00   0.54392   3 ;    C10-    C9-    C8-   H17
   235    225    226    238      9     0.00   0.50208   3 ;     H1-    C1-    C2-    H4
   235    225    226    239      9     0.00   0.50208   3 ;     H1-    C1-    C2-    H5
   236    225    226    238      9     0.00   0.50208   3 ;     H2-    C1-    C2-    H4
   236    225    226    239      9     0.00   0.50208   3 ;     H2-    C1-    C2-    H5
   237    225    226    238      9     0.00   0.50208   3 ;     H3-    C1-    C2-    H4
   237    225    226    239      9     0.00   0.50208   3 ;     H3-    C1-    C2-    H5
   238    226    227    240      9     0.00   0.50208   3 ;     H4-    C2-    C3-    H6
   238    226    227    241      9     0.00   0.50208   3 ;     H4-    C2-    C3-    H7
   239    226    227    240      9     0.00   0.50208   3 ;     H5-    C2-    C3-    H6
   239    226    227    241      9     0.00   0.50208   3 ;     H5-    C2-    C3-    H7
   240    227    228    242      9     0.00   0.50208   3 ;     H6-    C3-    C4-    H8
   240    227    228    243      9     0.00   0.50208   3 ;     H6-    C3-    C4-    H9
   241    227    228    242      9     0.00   0.50208   3 ;     H7-    C3-    C4-    H8
   241    227    228    243      9     0.00   0.50208   3 ;     H7-    C3-    C4-    H9
   242    228    229    244      9     0.00   0.50208   3 ;     H8-    C4-    C5-   H10
   242    228    229    245      9     0.00   0.50208   3 ;     H8-    C4-    C5-   H11
   243    228    229    244      9     0.00   0.50208   3 ;     H9-    C4-    C5-   H10
   243    228    229    245      9     0.00   0.50208   3 ;     H9-    C4-    C5-   H11
   244    229    230    246      9     0.00   0.50208   3 ;    H10-    C5-    C6-   H12
   244    229    230    247      9     0.00   0.50208   3 ;    H10-    C5-    C6-   H13
   245    229    230    246      9     0.00   0.50208   3 ;    H11-    C5-    C6-   H12
   245    229    230    247      9     0.00   0.50208   3 ;    H11-    C5-    C6-   H13
   246    230    231    248      9     0.00   0.50208   3 ;    H12-    C6-    C7-   H14
   246    230    231    249      9     0.00   0.50208   3 ;    H12-    C6-    C7-   H15
   247    230    231    248      9     0.00   0.50208   3 ;    H13-    C6-    C7-   H14
   247    230    231    249      9     0.00   0.50208   3 ;    H13-    C6-    C7-   H15
   248    231    232    250      9     0.00   0.50208   3 ;    H14-    C7-    C8-   H16
   248    231    232    251      9     0.00   0.50208   3 ;    H14-    C7-    C8-   H17
   249    231    232    250      9     0.00   0.50208   3 ;    H15-    C7-    C8-   H16
   249    231    232    251      9     0.00   0.50208   3 ;    H15-    C7-    C8-   H17
   250    232    233    252      9     0.00   0.50208   3 ;    H16-    C8-    C9-   H18
   250    232    233    253      9     0.00   0.50208   3 ;    H16-    C8-    C9-   H19
   251    232    233    252      9     0.00   0.50208   3 ;    H17-    C8-    C9-   H18
   251    232    233    253      9     0.00   0.50208   3 ;    H17-    C8-    C9-   H19
   252    233    234    254      9     0.00   0.50208   3 ;    H18-    C9-   C10-   H20
   252    233    234    255      9     0.00   0.50208   3 ;    H18-    C9-   C10-   H21
   252    233    234    256      9     0.00   0.50208   3 ;    H18-    C9-   C10-   H22
   253    233    234    254      9     0.00   0.50208   3 ;    H19-    C9-   C10-   H20
   253    233    234    255      9     0.00   0.50208   3 ;    H19-    C9-   C10-   H21
   253    233    234    256      9     0.00   0.50208   3 ;    H19-    C9-   C10-   H22
   257    258    259    260      9     0.00   2.17568   3 ;     C1-    C2-    C3-    C4
   257    258    259    272      9     0.00   0.54392   3 ;     C1-    C2-    C3-    H6
   257    258    259    273      9     0.00   0.54392   3 ;     C1-    C2-    C3-    H7
   258    259    260    261      9     0.00   2.17568   3 ;     C2-    C3-    C4-    C5
   258    259    260    274      9     0.00   0.54392   3 ;     C2-    C3-    C4-    H8
   258    259    260    275      9     0.00   0.54392   3 ;     C2-    C3-    C4-    H9
   259    258    257    267      9     0.00   0.54392   3 ;     C3-    C2-    C1-    H1
   259    258    257    268      9     0.00   0.54392   3 ;     C3-    C2-    C1-    H2
   259    258    257    269      9     0.00   0.54392   3 ;     C3-    C2-    C1-    H3
   259    260    261    262      9     0.00   2.17568   3 ;     C3-    C4-    C5-    C6
   259    260    261    276      9     0.00   0.54392   3 ;     C3-    C4-    C5-   H10
   259    260    261    277      9     0.00   0.54392   3 ;     C3-    C4-    C5-   H11
   260    259    258    270      9     0.00   0.54392   3 ;     C4-    C3-    C2-    H4
   260    259    258    271      9     0.00   0.54392   3 ;     C4-    C3-    C2-    H5
   260    261    262    263      9     0.00   2.17568   3 ;     C4-    C5-    C6-    C7
   260    261    262    278      9     0.00   0.54392   3 ;     C4-    C5-    C6-   H12
   260    261    262    279      9     0.00   0.54392   3 ;     C4-    C5-    C6-   H13
   261    260    259    272      9     0.00   0.54392   3 ;     C5-    C4-    C3-    H6
   261    260    259    273      9     0.00   0.54392   3 ;     C5-    C4-    C3-    H7
   261    262    263    264      9     0.00   2.17568   3 ;     C5-    C6-    C7-    C8
   261    262    263    280      9     0.00   0.54392   3 ;     C5-    C6-    C7-   H14
   261    262    263    281      9     0.00   0.54392   3 ;     C5-    C6-    C7-   H15
   262    261    260    274      9     0.00   0.54392   3 ;     C6-    C5-    C4-    H8
   262    261    260    275      9     0.00   0.54392   3 ;     C6-    C5-    C4-    H9
   262    263    264    265      9     0.00   2.17568   3 ;     C6-    C7-    C8-    C9
   262    263    264    282      9     0.00   0.54392   3 ;     C6-    C7-    C8-   H16
   262    263    264    283      9     0.00   0.54392   3 ;     C6-    C7-    C8-   H17
   263    262    261    276      9     0.00   0.54392   3 ;     C7-    C6-    C5-   H10
   263    262    261    277      9     0.00   0.54392   3 ;     C7-    C6-    C5-   H11
   263    264    265    266      9     0.00   2.17568   3 ;     C7-    C8-    C9-   C10
   263    264    265    284      9     0.00   0.54392   3 ;     C7-    C8-    C9-   H18
   263    264    265    285      9     0.00   0.54392   3 ;     C7-    C8-    C9-   H19
   264    263    262    278      9     0.00   0.54392   3 ;     C8-    C7-    C6-   H12
   264    263    262    279      9     0.00   0.54392   3 ;     C8-    C7-    C6-   H13
   264    265    266    286      9     0.00   0.54392   3 ;     C8-    C9-   C10-   H20
   264    265    266    287      9     0.00   0.54392   3 ;     C8-    C9-   C10-   H21
   264    265    266    288      9     0.00   0.54392   3 ;     C8-    C9-   C10-   H22
   265    264    263    280      9     0.00   0.54392   3 ;     C9-    C8-    C7-   H14
   265    264    263    281      9     0.00   0.54392   3 ;     C9-    C8-    C7-   H15
   266    265    264    282      9     0.00   0.54392   3 ;    C10-    C9-    C8-   H16
   266    265    264    283      9     0.00   0.54392   3 ;    C10-    C9-    C8-   H17
   267    257    258    270      9     0.00   0.50208   3 ;     H1-    C1-    C2-    H4
   267    257    258    271      9     0.00   0.50208   3 ;     H1-    C1-    C2-    H5
   268    257    258    270      9     0.00   0.50208   3 ;     H2-    C1-    C2-    H4
   268    257    258    271      9     0.00   0.50208   3 ;     H2-    C1-    C2-    H5
   269    257    258    270      9     0.00   0.50208   3 ;     H3-    C1-    C2-    H4
   269    257    258    271      9     0.00   0.50208   3 ;     H3-    C1-    C2-    H5
   270    258    259    272      9     0.00   0.50208   3 ;     H4-    C2-    C3-    H6
   270    258    259    273      9     0.00   0.50208   3 ;     H4-    C2-    C3-    H7
   271    258    259    272      9     0.00   0.50208   3 ;     H5-    C2-    C3-    H6
   271    258    259    273      9     0.00   0.50208   3 ;     H5-    C2-    C3-    H7
   272    259    260    274      9     0.00   0.50208   3 ;     H6-    C3-    C4-    H8
   272    259    260    275      9     0.00   0.50208   3 ;     H6-    C3-    C4-    H9
   273    259    260    274      9     0.00   0.50208   3 ;     H7-    C3-    C4-    H8
   273    259    260    275      9     0.00   0.50208   3 ;     H7-    C3-    C4-    H9
   274    260    261    276      9     0.00   0.50208   3 ;     H8-    C4-    C5-   H10
   274    260    261    277      9     0.00   0.50208   3 ;     H8-    C4-    C5-   H11
   275    260    261    276      9     0.00   0.50208   3 ;     H9-    C4-    C5-   H10
   275    260    261    277      9     0.00   0.50208   3 ;     H9-    C4-    C5-   H11
   276    261    262    278      9     0.00   0.50208   3 ;    H10-    C5-    C6-   H12
   276    261    262    279      9     0.00   0.50208   3 ;    H10-    C5-    C6-   H13
   277    261    262    278      9     0.00   0.50208   3 ;    H11-    C5-    C6-   H12
   277    261    262    279      9     0.00   0.50208   3 ;    H11-    C5-    C6-   H13
   278    262    263    280      9     0.00   0.50208   3 ;    H12-    C6-    C7-   H14
   278    262    263    281      9     0.00   0.50208   3 ;    H12-    C6-    C7-   H15
   279    262    263    280      9     0.00   0.50208   3 ;    H13-    C6-    C7-   H14
   279    262    263    281      9     0.00   0.50208   3 ;    H13-    C6-    C7-   H15
   280    263    264    282      9     0.00   0.50208   3 ;    H14-    C7-    C8-   H16
   280    263    264    283      9     0.00   0.50208   3 ;    H14-    C7-    C8-   H17
   281    263    264    282      9     0.00   0.50208   3 ;    H15-    C7-    C8-   H16
   281    263    264    283      9     0.00   0.50208   3 ;    H15-    C7-    C8-   H17
   282    264    265    284      9     0.00   0.50208   3 ;    H16-    C8-    C9-   H18
   282    264    265    285      9     0.00   0.50208   3 ;    H16-    C8-    C9-   H19
   283    264    265    284      9     0.00   0.50208   3 ;    H17-    C8-    C9-   H18
   283    264    265    285      9     0.00   0.50208   3 ;    H17-    C8-    C9-   H19
   284    265    266    286      9     0.00   0.50208   3 ;    H18-    C9-   C10-   H20
   284    265    266    287      9     0.00   0.50208   3 ;    H18-    C9-   C10-   H21
   284    265    266    288      9     0.00   0.50208   3 ;    H18-    C9-   C10-   H22
   285    265    266    286      9     0.00   0.50208   3 ;    H19-    C9-   C10-   H20
   285    265    266    287      9     0.00   0.50208   3 ;    H19-    C9-   C10-   H21
   285    265    266    288      9     0.00   0.50208   3 ;    H19-    C9-   C10-   H22
   289    290    291    292      9     0.00   2.17568   3 ;     C1-    C2-    C3-    C4
   289    290    291    304      9     0.00   0.54392   3 ;     C1-    C2-    C3-    H6
   289    290    291    305      9     0.00   0.54392   3 ;     C1-    C2-    C3-    H7
   290    291    292    293      9     0.00   2.17568   3 ;     C2-    C3-    C4-    C5
   290    291    292    306      9     0.00   0.54392   3 ;     C2-    C3-    C4-    H8
   290    291    292    307      9     0.00   0.54392   3 ;     C2-    C3-    C4-    H9
   291    290    289    299      9     0.00   0.54392   3 ;     C3-    C2-    C1-    H1
   291    290    289    300      9     0.00   0.54392   3 ;     C3-    C2-    C1-    H2
   291    290    289    301      9     0.00   0.54392   3 ;     C3-    C2-    C1-    H3
   291    292    293    294      9     0.00   2.17568   3 ;     C3-    C4-    C5-    C6
   291    292    293    308      9     0.00   0.54392   3 ;     C3-    C4-    C5-   H10
   291    292    293    309      9     0.00   0.54392   3 ;     C3-    C4-    C5-   H11
   292    291    290    302      9     0.00   0.54392   3 ;     C4-    C3-    C2-    H4
   292    291    290    303      9     0.00   0.54392   3 ;     C4-    C3-    C2-    H5
   292    293    294    295      9     0.00   2.17568   3 ;     C4-    C5-    C6-    C7
   292    293    294    310      9     0.00   0.54392   3 ;     C4-    C5-    C6-   H12
   292    293    294    311      9     0.00   0.54392   3 ;     C4-    C5-    C6-   H13
   293    292    291    304      9     0.00   0.54392   3 ;     C5-    C4-    C3-    H6
   293    292    291    305      9     0.00   0.54392   3 ;     C5-    C4-    C3-    H7
   293    294    295    296      9     0.00   2.17568   3 ;     C5-    C6-    C7-    C8
   293    294    295    312      9     0.00   0.54392   3 ;     C5-    C6-    C7-   H14
   293    294    295    313      9     0.00   0.54392   3 ;     C5-    C6-    C7-   H15
   294    293    292    306      9     0.00   0.54392   3 ;     C6-    C5-    C4-    H8
   294    293    292    307      9     0.00   0.54392   3 ;     C6-    C5-    C4-    H9
   294    295    296    297      9     0.00   2.17568   3 ;     C6-    C7-    C8-    C9
   294    295    296    314      9     0.00   0.54392   3 ;     C6-    C7-    C8-   H16
   294    295    296    315      9     0.00   0.54392   3 ;     C6-    C7-    C8-   H17
   295    294    293    308      9     0.00   0.54392   3 ;     C7-    C6-    C5-   H10
   295    294    293    309      9     0.00   0.54392   3 ;     C7-    C6-    C5-   H11
   295    296    297    298      9     0.00   2.17568   3 ;     C7-    C8-    C9-   C10
   295    296    297    316      9     0.00   0.54392   3 ;     C7-    C8-    C9-   H18
   295    296    297    317      9     0.00   0.54392   3 ;     C7-    C8-    C9-   H19
   296    295    294    310      9     0.00   0.54392   3 ;     C8-    C7-    C6-   H12
   296    295    294    311      9     0.00   0.54392   3 ;     C8-    C7-    C6-   H13
   296    297    298    318      9     0.00   0.54392   3 ;     C8-    C9-   C10-   H20
   296    297    298    319      9     0.00   0.54392   3 ;     C8-    C9-   C10-   H21
   296    297    298    320      9     0.00   0.54392   3 ;     C8-    C9-   C10-   H22
   297    296    295    312      9     0.00   0.54392   3 ;     C9-    C8-    C7-   H14
   297    296    295    313      9     0.00   0.54392   3 ;     C9-    C8-    C7-   H15
   298    297    296    314      9     0.00   0.54392   3 ;    C10-    C9-    C8-   H16
   298    297    296    315      9     0.00   0.54392   3 ;    C10-    C9-    C8-   H17
   299    289    290    302      9     0.00   0.50208   3 ;     H1-    C1-    C2-    H4
   299    289    290    303      9     0.00   0.50208   3 ;     H1-    C1-    C2-    H5
   300    289    290    302      9     0.00   0.50208   3 ;     H2-    C1-    C2-    H4
   300    289    290    303      9     0.00   0.50208   3 ;     H2-    C1-    C2-    H5
   301    289    290    302      9     0.00   0.50208   3 ;     H3-    C1-    C2-    H4
   301    289    290    303      9     0.00   0.50208   3 ;     H3-    C1-    C2-    H5
   302    290    291    304      9     0.00   0.50208   3 ;     H4-    C2-    C3-    H6
   302    290    291    305      9     0.00   0.50208   3 ;     H4-    C2-    C3-    H7
   303    290    291    304      9     0.00   0.50208   3 ;     H5-    C2-    C3-    H6
   303    290    291    305      9     0.00   0.50208   3 ;     H5-    C2-    C3-    H7
   304    291    292    306      9     0.00   0.50208   3 ;     H6-    C3-    C4-    H8
   304    291    292    307      9     0.00   0.50208   3 ;     H6-    C3-    C4-    H9
   305    291    292    306      9     0.00   0.50208   3 ;     H7-    C3-    C4-    H8
   305    291    292    307      9     0.00   0.50208   3 ;     H7-    C3-    C4-    H9
   306    292    293    308      9     0.00   0.50208   3 ;     H8-    C4-    C5-   H10
   306    292    293    309      9     0.00   0.50208   3 ;     H8-    C4-    C5-   H11
   307    292    293    308      9     0.00   0.50208   3 ;     H9-    C4-    C5-   H10
   307    292    293    309      9     0.00   0.50208   3 ;     H9-    C4-    C5-   H11
   308    293    294    310      9     0.00   0.50208   3 ;    H10-    C5-    C6-   H12
   308    293    294    311      9     0.00   0.50208   3 ;    H10-    C5-    C6-   H13
   309    293    294    310      9     0.00   0.50208   3 ;    H11-    C5-    C6-   H12
   309    293    294    311      9     0.00   0.50208   3 ;    H11-    C5-    C6-   H13
   310    294    295    312      9     0.00   0.50208   3 ;    H12-    C6-    C7-   H14
   310    294    295    313      9     0.00   0.50208   3 ;    H12-    C6-    C7-   H15
   311    294    295    312      9     0.00   0.50208   3 ;    H13-    C6-    C7-   H14
   311    294    295    313      9     0.00   0.50208   3 ;    H13-    C6-    C7-   H15
   312    295    296    314      9     0.00   0.50208   3 ;    H14-    C7-    C8-   H16
   312    295    296    315      9     0.00   0.50208   3 ;    H14-    C7-    C8-   H17
   313    295    296    314      9     0.00   0.50208   3 ;    H15-    C7-    C8-   H16
   313    295    296    315      9     0.00   0.50208   3 ;    H15-    C7-    C8-   H17
   314    296    297    316      9     0.00   0.50208   3 ;    H16-    C8-    C9-   H18
   314    296    297    317      9     0.00   0.50208   3 ;    H16-    C8-    C9-   H19
   315    296    297    316      9     0.00   0.50208   3 ;    H17-    C8-    C9-   H18
   315    296    297    317      9     0.00   0.50208   3 ;    H17-    C8-    C9-   H19
   316    297    298    318      9     0.00   0.50208   3 ;    H18-    C9-   C10-   H20
   316    297    298    319      9     0.00   0.50208   3 ;    H18-    C9-   C10-   H21
   316    297    298    320      9     0.00   0.50208   3 ;    H18-    C9-   C10-   H22
   317    297    298    318      9     0.00   0.50208   3 ;    H19-    C9-   C10-   H20
   317    297    298    319      9     0.00   0.50208   3 ;    H19-    C9-   C10-   H21
   317    297    298    320      9     0.00   0.50208   3 ;    H19-    C9-   C10-   H22
   321    322    323    324      9     0.00   2.17568   3 ;     C1-    C2-    C3-    C4
   321    322    323    336      9     0.00   0.54392   3 ;     C1-    C2-    C3-    H6
   321    322    323    337      9     0.00   0.54392   3 ;     C1-    C2-    C3-    H7
   322    323    324    325      9     0.00   2.17568   3 ;     C2-    C3-    C4-    C5
   322    323    324    338      9     0.00   0.54392   3 ;     C2-    C3-    C4-    H8
   322    323    324    339      9     0.00   0.54392   3 ;     C2-    C3-    C4-    H9
   323    322    321    331      9     0.00   0.54392   3 ;     C3-    C2-    C1-    H1
   323    322    321    332      9     0.00   0.54392   3 ;     C3-    C2-    C1-    H2
   323    322    321    333      9     0.00   0.54392   3 ;     C3-    C2-    C1-    H3
   323    324    325    326      9     0.00   2.17568   3 ;     C3-    C4-    C5-    C6
   323    324    325    340      9     0.00   0.54392   3 ;     C3-    C4-    C5-   H10
   323    324    325    341      9     0.00   0.54392   3 ;     C3-    C4-    C5-   H11
   324    323    322    334      9     0.00   0.54392   3 ;     C4-    C3-    C2-    H4
   324    323    322    335      9     0.00   0.54392   3 ;     C4-    C3-    C2-    H5
   324    325    326    327      9     0.00   2.17568   3 ;     C4-    C5-    C6-    C7
   324    325    326    342      9     0.00   0.54392   3 ;     C4-    C5-    C6-   H12
   324    325    326    343      9     0.00   0.54392   3 ;     C4-    C5-    C6-   H13
   325    324    323    336      9     0.00   0.54392   3 ;     C5-    C4-    C3-    H6
   325    324    323    337      9     0.00   0.54392   3 ;     C5-    C4-    C3-    H7
   325    326    327    328      9     0.00   2.17568   3 ;     C5-    C6-    C7-    C8
   325    326    327    344      9     0.00   0.54392   3 ;     C5-    C6-    C7-   H14
   325    326    327    345      9     0.00   0.54392   3 ;     C5-    C6-    C7-   H15
   326    325    324    338      9     0.00   0.54392   3 ;     C6-    C5-    C4-    H8
   326    325    324    339      9     0.00   0.54392   3 ;     C6-    C5-    C4-    H9
   326    327    328    329      9     0.00   2.17568   3 ;     C6-    C7-    C8-    C9
   326    327    328    346      9     0.00   0.54392   3 ;     C6-    C7-    C8-   H16
   326    327    328    347      9     0.00   0.54392   3 ;     C6-    C7-    C8-   H17
   327    326    325    340      9     0.00   0.54392   3 ;     C7-    C6-    C5-   H10
   327    326    325    341      9     0.00   0.54392   3 ;     C7-    C6-    C5-   H11
   327    328    329    330      9     0.00   2.17568   3 ;     C7-    C8-    C9-   C10
   327    328    329    348      9     0.00   0.54392   3 ;     C7-    C8-    C9-   H18
   327    328    329    349      9     0.00   0.54392   3 ;     C7-    C8-    C9-   H19
   328    327    326    342      9     0.00   0.54392   3 ;     C8-    C7-    C6-   H12
   328    327    326    343      9     0.00   0.54392   3 ;     C8-    C7-    C6-   H13
   328    329    330    350      9     0.00   0.54392   3 ;     C8-    C9-   C10-   H20
   328    329    330    351      9     0.00   0.54392   3 ;     C8-    C9-   C10-   H21
   328    329    330    352      9     0.00   0.54392   3 ;     C8-    C9-   C10-   H22
   329    328    327    344      9     0.00   0.54392   3 ;     C9-    C8-    C7-   H14
   329    328    327    345      9     0.00   0.54392   3 ;     C9-    C8-    C7-   H15
   330    329    328    346      9     0.00   0.54392   3 ;    C10-    C9-    C8-   H16
   330    329    328    347      9     0.00   0.54392   3 ;    C10-    C9-    C8-   H17
   331    321    322    334      9     0.00   0.50208   3 ;     H1-    C1-    C2-    H4
   331    321    322    335      9     0.00   0.50208   3 ;     H1-    C1-    C2-    H5
   332    321    322    334      9     0.00   0.50208   3 ;     H2-    C1-    C2-    H4
   332    321    322    335      9     0.00   0.50208   3 ;     H2-    C1-    C2-    H5
   333    321    322    334      9     0.00   0.50208   3 ;     H3-    C1-    C2-    H4
   333    321    322    335      9     0.00   0.50208   3 ;     H3-    C1-    C2-    H5
   334    322    323    336      9     0.00   0.50208   3 ;     H4-    C2-    C3-    H6
   334    322    323    337      9     0.00   0.50208   3 ;     H4-    C2-    C3-    H7
   335    322    323    336      9     0.00   0.50208   3 ;     H5-    C2-    C3-    H6
   335    322    323    337      9     0.00   0.50208   3 ;     H5-    C2-    C3-    H7
   336    323    324    338      9     0.00   0.50208   3 ;     H6-    C3-    C4-    H8
   336    323    324    339      9     0.00   0.50208   3 ;     H6-    C3-    C4-    H9
   337    323    324    338      9     0.00   0.50208   3 ;     H7-    C3-    C4-    H8
   337    323    324    339      9     0.00   0.50208   3 ;     H7-    C3-    C4-    H9
   338    324    325    340      9     0.00   0.50208   3 ;     H8-    C4-    C5-   H10
   338    324    325    341      9     0.00   0.50208   3 ;     H8-    C4-    C5-   H11
   339    324    325    340      9     0.00   0.50208   3 ;     H9-    C4-    C5-   H10
   339    324    325    341      9     0.00   0.50208   3 ;     H9-    C4-    C5-   H11
   340    325    326    342      9     0.00   0.50208   3 ;    H10-    C5-    C6-   H12
   340    325    326    343      9     0.00   0.50208   3 ;    H10-    C5-    C6-   H13
   341    325    326    342      9     0.00   0.50208   3 ;    H11-    C5-    C6-   H12
   341    325    326    343      9     0.00   0.50208   3 ;    H11-    C5-    C6-   H13
   342    326    327    344      9     0.00   0.50208   3 ;    H12-    C6-    C7-   H14
   342    326    327    345      9     0.00   0.50208   3 ;    H12-    C6-    C7-   H15
   343    326    327    344      9     0.00   0.50208   3 ;    H13-    C6-    C7-   H14
   343    326    327    345      9     0.00   0.50208   3 ;    H13-    C6-    C7-   H15
   344    327    328    346      9     0.00   0.50208   3 ;    H14-    C7-    C8-   H16
   344    327    328    347      9     0.00   0.50208   3 ;    H14-    C7-    C8-   H17
   345    327    328    346      9     0.00   0.50208   3 ;    H15-    C7-    C8-   H16
   345    327    328    347      9     0.00   0.50208   3 ;    H15-    C7-    C8-   H17
   346    328    329    348      9     0.00   0.50208   3 ;    H16-    C8-    C9-   H18
   346    328    329    349      9     0.00   0.50208   3 ;    H16-    C8-    C9-   H19
   347    328    329    348      9     0.00   0.50208   3 ;    H17-    C8-    C9-   H18
   347    328    329    349      9     0.00   0.50208   3 ;    H17-    C8-    C9-   H19
   348    329    330    350      9     0.00   0.50208   3 ;    H18-    C9-   C10-   H20
   348    329    330    351      9     0.00   0.50208   3 ;    H18-    C9-   C10-   H21
   348    329    330    352      9     0.00   0.50208   3 ;    H18-    C9-   C10-   H22
   349    329    330    350      9     0.00   0.50208   3 ;    H19-    C9-   C10-   H20
   349    329    330    351      9     0.00   0.50208   3 ;    H19-    C9-   C10-   H21
   349    329    330    352      9     0.00   0.50208   3 ;    H19-    C9-   C10-   H22
   353    354    355    356      9     0.00   2.17568   3 ;     C1-    C2-    C3-    C4
   353    354    355    368      9     0.00   0.54392   3 ;     C1-    C2-    C3-    H6
   353    354    355    369      9     0.00   0.54392   3 ;     C1-    C2-    C3-    H7
   354    355    356    357      9     0.00   2.17568   3 ;     C2-    C3-    C4-    C5
   354    355    356    370      9     0.00   0.54392   3 ;     C2-    C3-    C4-    H8
   354    355    356    371      9     0.00   0.54392   3 ;     C2-    C3-    C4-    H9
   355    354    353    363      9     0.00   0.54392   3 ;     C3-    C2-    C1-    H1
   355    354    353    364      9     0.00   0.54392   3 ;     C3-    C2-    C1-    H2
   355    354    353    365      9     0.00   0.54392   3 ;     C3-    C2-    C1-    H3
   355    356    357    358      9     0.00   2.17568   3 ;     C3-    C4-    C5-    C6
   355    356    357    372      9     0.00   0.54392   3 ;     C3-    C4-    C5-   H10
   355    356    357    373      9     0.00   0.54392   3 ;     C3-    C4-    C5-   H11
   356    355    354    366      9     0.00   0.54392   3 ;     C4-    C3-    C2-    H4
   356    355    354    367      9     0.00   0.54392   3 ;     C4-    C3-    C2-    H5
   356    357    358    359      9     0.00   2.17568   3 ;     C4-    C5-    C6-    C7
   356    357    358    374      9     0.00   0.54392   3 ;     C4-    C5-    C6-   H12
   356    357    358    375      9     0.00   0.54392   3 ;     C4-    C5-    C6-   H13
   357    356    355    368      9     0.00   0.54392   3 ;     C5-    C4-    C3-    H6
   357    356    355    369      9     0.00   0.54392   3 ;     C5-    C4-    C3-    H7
   357    358    359    360      9     0.00   2.17568   3 ;     C5-    C6-    C7-    C8
   357    358    359    376      9     0.00   0.54392   3 ;     C5-    C6-    C7-   H14
   357    358    359    377      9     0.00   0.54392   3 ;     C5-    C6-    C7-   H15
   358    357    356    370      9     0.00   0.54392   3 ;     C6-    C5-    C4-    H8
   358    357    356    371      9     0.00   0.54392   3 ;     C6-    C5-    C4-    H9
   358    359    360    361      9     0.00   2.17568   3 ;     C6-    C7-    C8-    C9
   358    359    360    378      9     0.00   0.54392   3 ;     C6-    C7-    C8-   H16
   358    359    360    379      9     0.00   0.54392   3 ;     C6-    C7-    C8-   H17
   359    358    357    372      9     0.00   0.54392   3 ;     C7-    C6-    C5-   H10
   359    358    357    373      9     0.00   0.54392   3 ;     C7-    C6-    C5-   H11
   359    360    361    362      9     0.00   2.17568   3 ;     C7-    C8-    C9-   C10
   359    360    361    380      9     0.00   0.54392   3 ;     C7-    C8-    C9-   H18
   359    360    361    381      9     0.00   0.54392   3 ;     C7-    C8-    C9-   H19
   360    359    358    374      9     0.00   0.54392   3 ;     C8-    C7-    C6-   H12
   360    359    358    375      9     0.00   0.54392   3 ;     C8-    C7-    C6-   H13
   360    361    362    382      9     0.00   0.54392   3 ;     C8-    C9-   C10-   H20
   360    361    362    383      9     0.00   0.54392   3 ;     C8-    C9-   C10-   H21
   360    361    362    384      9     0.00   0.54392   3 ;     C8-    C9-   C10-   H22
   361    360    359    376      9     0.00   0.54392   3 ;     C9-    C8-    C7-   H14
   361    360    359    377      9     0.00   0.54392   3 ;     C9-    C8-    C7-   H15
   362    361    360    378      9     0.00   0.54392   3 ;    C10-    C9-    C8-   H16
   362    361    360    379      9     0.00   0.54392   3 ;    C10-    C9-    C8-   H17
   363    353    354    366      9     0.00   0.50208   3 ;     H1-    C1-    C2-    H4
   363    353    354    367      9     0.00   0.50208   3 ;     H1-    C1-    C2-    H5
   364    353    354    366      9     0.00   0.50208   3 ;     H2-    C1-    C2-    H4
   364    353    354    367      9     0.00   0.50208   3 ;     H2-    C1-    C2-    H5
   365    353    354    366      9     0.00   0.50208   3 ;     H3-    C1-    C2-    H4
   365    353    354    367      9     0.00   0.50208   3 ;     H3-    C1-    C2-    H5
   366    354    355    368      9     0.00   0.50208   3 ;     H4-    C2-    C3-    H6
   366    354    355    369      9     0.00   0.50208   3 ;     H4-    C2-    C3-    H7
   367    354    355    368      9     0.00   0.50208   3 ;     H5-    C2-    C3-    H6
   367    354    355    369      9     0.00   0.50208   3 ;     H5-    C2-    C3-    H7
   368    355    356    370      9     0.00   0.50208   3 ;     H6-    C3-    C4-    H8
   368    355    356    371      9     0.00   0.50208   3 ;     H6-    C3-    C4-    H9
   369    355    356    370      9     0.00   0.50208   3 ;     H7-    C3-    C4-    H8
   369    355    356    371      9     0.00   0.50208   3 ;     H7-    C3-    C4-    H9
   370    356    357    372      9     0.00   0.50208   3 ;     H8-    C4-    C5-   H10
   370    356    357    373      9     0.00   0.50208   3 ;     H8-    C4-    C5-   H11
   371    356    357    372      9     0.00   0.50208   3 ;     H9-    C4-    C5-   H10
   371    356    357    373      9     0.00   0.50208   3 ;     H9-    C4-    C5-   H11
   372    357    358    374      9     0.00   0.50208   3 ;    H10-    C5-    C6-   H12
   372    357    358    375      9     0.00   0.50208   3 ;    H10-    C5-    C6-   H13
   373    357    358    374      9     0.00   0.50208   3 ;    H11-    C5-    C6-   H12
   373    357    358    375      9     0.00   0.50208   3 ;    H11-    C5-    C6-   H13
   374    358    359    376      9     0.00   0.50208   3 ;    H12-    C6-    C7-   H14
   374    358    359    377      9     0.00   0.50208   3 ;    H12-    C6-    C7-   H15
   375    358    359    376      9     0.00   0.50208   3 ;    H13-    C6-    C7-   H14
   375    358    359    377      9     0.00   0.50208   3 ;    H13-    C6-    C7-   H15
   376    359    360    378      9     0.00   0.50208   3 ;    H14-    C7-    C8-   H16
   376    359    360    379      9     0.00   0.50208   3 ;    H14-    C7-    C8-   H17
   377    359    360    378      9     0.00   0.50208   3 ;    H15-    C7-    C8-   H16
   377    359    360    379      9     0.00   0.50208   3 ;    H15-    C7-    C8-   H17
   378    360    361    380      9     0.00   0.50208   3 ;    H16-    C8-    C9-   H18
   378    360    361    381      9     0.00   0.50208   3 ;    H16-    C8-    C9-   H19
   379    360    361    380      9     0.00   0.50208   3 ;    H17-    C8-    C9-   H18
   379    360    361    381      9     0.00   0.50208   3 ;    H17-    C8-    C9-   H19
   380    361    362    382      9     0.00   0.50208   3 ;    H18-    C9-   C10-   H20
   380    361    362    383      9     0.00   0.50208   3 ;    H18-    C9-   C10-   H21
   380    361    362    384      9     0.00   0.50208   3 ;    H18-    C9-   C10-   H22
   381    361    362    382      9     0.00   0.50208   3 ;    H19-    C9-   C10-   H20
   381    361    362    383      9     0.00   0.50208   3 ;    H19-    C9-   C10-   H21
   381    361    362    384      9     0.00   0.50208   3 ;    H19-    C9-   C10-   H22
   385    386    387    388      9     0.00   2.17568   3 ;     C1-    C2-    C3-    C4
   385    386    387    400      9     0.00   0.54392   3 ;     C1-    C2-    C3-    H6
   385    386    387    401      9     0.00   0.54392   3 ;     C1-    C2-    C3-    H7
   386    387    388    389      9     0.00   2.17568   3 ;     C2-    C3-    C4-    C5
   386    387    388    402      9     0.00   0.54392   3 ;     C2-    C3-    C4-    H8
   386    387    388    403      9     0.00   0.54392   3 ;     C2-    C3-    C4-    H9
   387    386    385    395      9     0.00   0.54392   3 ;     C3-    C2-    C1-    H1
   387    386    385    396      9     0.00   0.54392   3 ;     C3-    C2-    C1-    H2
   387    386    385    397      9     0.00   0.54392   3 ;     C3-    C2-    C1-    H3
   387    388    389    390      9     0.00   2.17568   3 ;     C3-    C4-    C5-    C6
   387    388    389    404      9     0.00   0.54392   3 ;     C3-    C4-    C5-   H10
   387    388    389    405      9     0.00   0.54392   3 ;     C3-    C4-    C5-   H11
   388    387    386    398      9     0.00   0.54392   3 ;     C4-    C3-    C2-    H4
   388    387    386    399      9     0.00   0.54392   3 ;     C4-    C3-    C2-    H5
   388    389    390    391      9     0.00   2.17568   3 ;     C4-    C5-    C6-    C7
   388    389    390    406      9     0.00   0.54392   3 ;     C4-    C5-    C6-   H12
   388    389    390    407      9     0.00   0.54392   3 ;     C4-    C5-    C6-   H13
   389    388    387    400      9     0.00   0.54392   3 ;     C5-    C4-    C3-    H6
   389    388    387    401      9     0.00   0.54392   3 ;     C5-    C4-    C3-    H7
   389    390    391    392      9     0.00   2.17568   3 ;     C5-    C6-    C7-    C8
   389    390    391    408      9     0.00   0.54392   3 ;     C5-    C6-    C7-   H14
   389    390    391    409      9     0.00   0.54392   3 ;     C5-    C6-    C7-   H15
   390    389    388    402      9     0.00   0.54392   3 ;     C6-    C5-    C4-    H8
   390    389    388    403      9     0.00   0.54392   3 ;     C6-    C5-    C4-    H9
   390    391    392    393      9     0.00   2.17568   3 ;     C6-    C7-    C8-    C9
   390    391    392    410      9     0.00   0.54392   3 ;     C6-    C7-    C8-   H16
   390    391    392    411      9     0.00   0.54392   3 ;     C6-    C7-    C8-   H17
   391    390    389    404      9     0.00   0.54392   3 ;     C7-    C6-    C5-   H10
   391    390    389    405      9     0.00   0.54392   3 ;     C7-    C6-    C5-   H11
   391    392    393    394      9     0.00   2.17568   3 ;     C7-    C8-    C9-   C10
   391    392    393    412      9     0.00   0.54392   3 ;     C7-    C8-    C9-   H18
   391    392    393    413      9     0.00   0.54392   3 ;     C7-    C8-    C9-   H19
   392    391    390    406      9     0.00   0.54392   3 ;     C8-    C7-    C6-   H12
   392    391    390    407      9     0.00   0.54392   3 ;     C8-    C7-    C6-   H13
   392    393    394    414      9     0.00   0.54392   3 ;     C8-    C9-   C10-   H20
   392    393    394    415      9     0.00   0.54392   3 ;     C8-    C9-   C10-   H21
   392    393    394    416      9     0.00   0.54392   3 ;     C8-    C9-   C10-   H22
   393    392    391    408      9     0.00   0.54392   3 ;     C9-    C8-    C7-   H14
   393    392    391    409      9     0.00   0.54392   3 ;     C9-    C8-    C7-   H15
   394    393    392    410      9     0.00   0.54392   3 ;    C10-    C9-    C8-   H16
   394    393    392    411      9     0.00   0.54392   3 ;    C10-    C9-    C8-   H17
   395    385    386    398      9     0.00   0.50208   3 ;     H1-    C1-    C2-    H4
   395    385    386    399      9     0.00   0.50208   3 ;     H1-    C1-    C2-    H5
   396    385    386    398      9     0.00   0.50208   3 ;     H2-    C1-    C2-    H4
   396    385    386    399      9     0.00   0.50208   3 ;     H2-    C1-    C2-    H5
   397    385    386    398      9     0.00   0.50208   3 ;     H3-    C1-    C2-    H4
   397    385    386    399      9     0.00   0.50208   3 ;     H3-    C1-    C2-    H5
   398    386    387    400      9     0.00   0.50208   3 ;     H4-    C2-    C3-    H6
   398    386    387    401      9     0.00   0.50208   3 ;     H4-    C2-    C3-    H7
   399    386    387    400      9     0.00   0.50208   3 ;     H5-    C2-    C3-    H6
   399    386    387    401      9     0.00   0.50208   3 ;     H5-    C2-    C3-    H7
   400    387    388    402      9     0.00   0.50208   3 ;     H6-    C3-    C4-    H8
   400    387    388    403      9     0.00   0.50208   3 ;     H6-    C3-    C4-    H9
   401    387    388    402      9     0.00   0.50208   3 ;     H7-    C3-    C4-    H8
   401    387    388    403      9     0.00   0.50208   3 ;     H7-    C3-    C4-    H9
   402    388    389    404      9     0.00   0.50208   3 ;     H8-    C4-    C5-   H10
   402    388    389    405      9     0.00   0.50208   3 ;     H8-    C4-    C5-   H11
   403    388    389    404      9     0.00   0.50208   3 ;     H9-    C4-    C5-   H10
   403    388    389    405      9     0.00   0.50208   3 ;     H9-    C4-    C5-   H11
   404    389    390    406      9     0.00   0.50208   3 ;    H10-    C5-    C6-   H12
   404    389    390    407      9     0.00   0.50208   3 ;    H10-    C5-    C6-   H13
   405    389    390    406      9     0.00   0.50208   3 ;    H11-    C5-    C6-   H12
   405    389    390    407      9     0.00   0.50208   3 ;    H11-    C5-    C6-   H13
   406    390    391    408      9     0.00   0.50208   3 ;    H12-    C6-    C7-   H14
   406    390    391    409      9     0.00   0.50208   3 ;    H12-    C6-    C7-   H15
   407    390    391    408      9     0.00   0.50208   3 ;    H13-    C6-    C7-   H14
   407    390    391    409      9     0.00   0.50208   3 ;    H13-    C6-    C7-   H15
   408    391    392    410      9     0.00   0.50208   3 ;    H14-    C7-    C8-   H16
   408    391    392    411      9     0.00   0.50208   3 ;    H14-    C7-    C8-   H17
   409    391    392    410      9     0.00   0.50208   3 ;    H15-    C7-    C8-   H16
   409    391    392    411      9     0.00   0.50208   3 ;    H15-    C7-    C8-   H17
   410    392    393    412      9     0.00   0.50208   3 ;    H16-    C8-    C9-   H18
   410    392    393    413      9     0.00   0.50208   3 ;    H16-    C8-    C9-   H19
   411    392    393    412      9     0.00   0.50208   3 ;    H17-    C8-    C9-   H18
   411    392    393    413      9     0.00   0.50208   3 ;    H17-    C8-    C9-   H19
   412    393    394    414      9     0.00   0.50208   3 ;    H18-    C9-   C10-   H20
   412    393    394    415      9     0.00   0.50208   3 ;    H18-    C9-   C10-   H21
   412    393    394    416      9     0.00   0.50208   3 ;    H18-    C9-   C10-   H22
   413    393    394    414      9     0.00   0.50208   3 ;    H19-    C9-   C10-   H20
   413    393    394    415      9     0.00   0.50208   3 ;    H19-    C9-   C10-   H21
   413    393    394    416      9     0.00   0.50208   3 ;    H19-    C9-   C10-   H22
   417    418    419    420      9     0.00   2.17568   3 ;     C1-    C2-    C3-    C4
   417    418    419    432      9     0.00   0.54392   3 ;     C1-    C2-    C3-    H6
   417    418    419    433      9     0.00   0.54392   3 ;     C1-    C2-    C3-    H7
   418    419    420    421      9     0.00   2.17568   3 ;     C2-    C3-    C4-    C5
   418    419    420    434      9     0.00   0.54392   3 ;     C2-    C3-    C4-    H8
   418    419    420    435      9     0.00   0.54392   3 ;     C2-    C3-    C4-    H9
   419    418    417    427      9     0.00   0.54392   3 ;     C3-    C2-    C1-    H1
   419    418    417    428      9     0.00   0.54392   3 ;     C3-    C2-    C1-    H2
   419    418    417    429      9     0.00   0.54392   3 ;     C3-    C2-    C1-    H3
   419    420    421    422      9     0.00   2.17568   3 ;     C3-    C4-    C5-    C6
   419    420    421    436      9     0.00   0.54392   3 ;     C3-    C4-    C5-   H10
   419    420    421    437      9     0.00   0.54392   3 ;     C3-    C4-    C5-   H11
   420    419    418    430      9     0.00   0.54392   3 ;     C4-    C3-    C2-    H4
   420    419    418    431      9     0.00   0.54392   3 ;     C4-    C3-    C2-    H5
   420    421    422    423      9     0.00   2.17568   3 ;     C4-    C5-    C6-    C7
   420    421    422    438      9     0.00   0.54392   3 ;     C4-    C5-    C6-   H12
   420    421    422    439      9     0.00   0.54392   3 ;     C4-    C5-    C6-   H13
   421    420    419    432      9     0.00   0.54392   3 ;     C5-    C4-    C3-    H6
   421    420    419    433      9     0.00   0.54392   3 ;     C5-    C4-    C3-    H7
   421    422    423    424      9     0.00   2.17568   3 ;     C5-    C6-    C7-    C8
   421    422    423    440      9     0.00   0.54392   3 ;     C5-    C6-    C7-   H14
   421    422    423    441      9     0.00   0.54392   3 ;     C5-    C6-    C7-   H15
   422    421    420    434      9     0.00   0.54392   3 ;     C6-    C5-    C4-    H8
   422    421    420    435      9     0.00   0.54392   3 ;     C6-    C5-    C4-    H9
   422    423    424    425      9     0.00   2.17568   3 ;     C6-    C7-    C8-    C9
   422    423    424    442      9     0.00   0.54392   3 ;     C6-    C7-    C8-   H16
   422    423    424    443      9     0.00   0.54392   3 ;     C6-    C7-    C8-   H17
   423    422    421    436      9     0.00   0.54392   3 ;     C7-    C6-    C5-   H10
   423    422    421    437      9     0.00   0.54392   3 ;     C7-    C6-    C5-   H11
   423    424    425    426      9     0.00   2.17568   3 ;     C7-    C8-    C9-   C10
   423    424    425    444      9     0.00   0.54392   3 ;     C7-    C8-    C9-   H18
   423    424    425    445      9     0.00   0.54392   3 ;     C7-    C8-    C9-   H19
   424    423    422    438      9     0.00   0.54392   3 ;     C8-    C7-    C6-   H12
   424    423    422    439      9     0.00   0.54392   3 ;     C8-    C7-    C6-   H13
   424    425    426    446      9     0.00   0.54392   3 ;     C8-    C9-   C10-   H20
   424    425    426    447      9     0.00   0.54392   3 ;     C8-    C9-   C10-   H21
   424    425    426    448      9     0.00   0.54392   3 ;     C8-    C9-   C10-   H22
   425    424    423    440      9     0.00   0.54392   3 ;     C9-    C8-    C7-   H14
   425    424    423    441      9     0.00   0.54392   3 ;     C9-    C8-    C7-   H15
   426    425    424    442      9     0.00   0.54392   3 ;    C10-    C9-    C8-   H16
   426    425    424    443      9     0.00   0.54392   3 ;    C10-    C9-    C8-   H17
   427    417    418    430      9     0.00   0.50208   3 ;     H1-    C1-    C2-    H4
   427    417    418    431      9     0.00   0.50208   3 ;     H1-    C1-    C2-    H5
   428    417    418    430      9     0.00   0.50208   3 ;     H2-    C1-    C2-    H4
   428    417    418    431      9     0.00   0.50208   3 ;     H2-    C1-    C2-    H5
   429    417    418    430      9     0.00   0.50208   3 ;     H3-    C1-    C2-    H4
   429    417    418    431      9     0.00   0.50208   3 ;     H3-    C1-    C2-    H5
   430    418    419    432      9     0.00   0.50208   3 ;     H4-    C2-    C3-    H6
   430    418    419    433      9     0.00   0.50208   3 ;     H4-    C2-    C3-    H7
   431    418    419    432      9     0.00   0.50208   3 ;     H5-    C2-    C3-    H6
   431    418    419    433      9     0.00   0.50208   3 ;     H5-    C2-    C3-    H7
   432    419    420    434      9     0.00   0.50208   3 ;     H6-    C3-    C4-    H8
   432    419    420    435      9     0.00   0.50208   3 ;     H6-    C3-    C4-    H9
   433    419    420    434      9     0.00   0.50208   3 ;     H7-    C3-    C4-    H8
   433    419    420    435      9     0.00   0.50208   3 ;     H7-    C3-    C4-    H9
   434    420    421    436      9     0.00   0.50208   3 ;     H8-    C4-    C5-   H10
   434    420    421    437      9     0.00   0.50208   3 ;     H8-    C4-    C5-   H11
   435    420    421    436      9     0.00   0.50208   3 ;     H9-    C4-    C5-   H10
   435    420    421    437      9     0.00   0.50208   3 ;     H9-    C4-    C5-   H11
   436    421    422    438      9     0.00   0.50208   3 ;    H10-    C5-    C6-   H12
   436    421    422    439      9     0.00   0.50208   3 ;    H10-    C5-    C6-   H13
   437    421    422    438      9     0.00   0.50208   3 ;    H11-    C5-    C6-   H12
   437    421    422    439      9     0.00   0.50208   3 ;    H11-    C5-    C6-   H13
   438    422    423    440      9     0.00   0.50208   3 ;    H12-    C6-    C7-   H14
   438    422    423    441      9     0.00   0.50208   3 ;    H12-    C6-    C7-   H15
   439    422    423    440      9     0.00   0.50208   3 ;    H13-    C6-    C7-   H14
   439    422    423    441      9     0.00   0.50208   3 ;    H13-    C6-    C7-   H15
   440    423    424    442      9     0.00   0.50208   3 ;    H14-    C7-    C8-   H16
   440    423    424    443      9     0.00   0.50208   3 ;    H14-    C7-    C8-   H17
   441    423    424    442      9     0.00   0.50208   3 ;    H15-    C7-    C8-   H16
   441    423    424    443      9     0.00   0.50208   3 ;    H15-    C7-    C8-   H17
   442    424    425    444      9     0.00   0.50208   3 ;    H16-    C8-    C9-   H18
   442    424    425    445      9     0.00   0.50208   3 ;    H16-    C8-    C9-   H19
   443    424    425    444      9     0.00   0.50208   3 ;    H17-    C8-    C9-   H18
   443    424    425    445      9     0.00   0.50208   3 ;    H17-    C8-    C9-   H19
   444    425    426    446      9     0.00   0.50208   3 ;    H18-    C9-   C10-   H20
   444    425    426    447      9     0.00   0.50208   3 ;    H18-    C9-   C10-   H21
   444    425    426    448      9     0.00   0.50208   3 ;    H18-    C9-   C10-   H22
   445    425    426    446      9     0.00   0.50208   3 ;    H19-    C9-   C10-   H20
   445    425    426    447      9     0.00   0.50208   3 ;    H19-    C9-   C10-   H21
   445    425    426    448      9     0.00   0.50208   3 ;    H19-    C9-   C10-   H22
   449    450    451    452      9     0.00   2.17568   3 ;     C1-    C2-    C3-    C4
   449    450    451    464      9     0.00   0.54392   3 ;     C1-    C2-    C3-    H6
   449    450    451    465      9     0.00   0.54392   3 ;     C1-    C2-    C3-    H7
   450    451    452    453      9     0.00   2.17568   3 ;     C2-    C3-    C4-    C5
   450    451    452    466      9     0.00   0.54392   3 ;     C2-    C3-    C4-    H8
   450    451    452    467      9     0.00   0.54392   3 ;     C2-    C3-    C4-    H9
   451    450    449    459      9     0.00   0.54392   3 ;     C3-    C2-    C1-    H1
   451    450    449    460      9     0.00   0.54392   3 ;     C3-    C2-    C1-    H2
   451    450    449    461      9     0.00   0.54392   3 ;     C3-    C2-    C1-    H3
   451    452    453    454      9     0.00   2.17568   3 ;     C3-    C4-    C5-    C6
   451    452    453    468      9     0.00   0.54392   3 ;     C3-    C4-    C5-   H10
   451    452    453    469      9     0.00   0.54392   3 ;     C3-    C4-    C5-   H11
   452    451    450    462      9     0.00   0.54392   3 ;     C4-    C3-    C2-    H4
   452    451    450    463      9     0.00   0.54392   3 ;     C4-    C3-    C2-    H5
   452    453    454    455      9     0.00   2.17568   3 ;     C4-    C5-    C6-    C7
   452    453    454    470      9     0.00   0.54392   3 ;     C4-    C5-    C6-   H12
   452    453    454    471      9     0.00   0.54392   3 ;     C4-    C5-    C6-   H13
   453    452    451    464      9     0.00   0.54392   3 ;     C5-    C4-    C3-    H6
   453    452    451    465      9     0.00   0.54392   3 ;     C5-    C4-    C3-    H7
   453    454    455    456      9     0.00   2.17568   3 ;     C5-    C6-    C7-    C8
   453    454    455    472      9     0.00   0.54392   3 ;     C5-    C6-    C7-   H14
   453    454    455    473      9     0.00   0.54392   3 ;     C5-    C6-    C7-   H15
   454    453    452    466      9     0.00   0.54392   3 ;     C6-    C5-    C4-    H8
   454    453    452    467      9     0.00   0.54392   3 ;     C6-    C5-    C4-    H9
   454    455    456    457      9     0.00   2.17568   3 ;     C6-    C7-    C8-    C9
   454    455    456    474      9     0.00   0.54392   3 ;     C6-    C7-    C8-   H16
   454    455    456    475      9     0.00   0.54392   3 ;     C6-    C7-    C8-   H17
   455    454    453    468      9     0.00   0.54392   3 ;     C7-    C6-    C5-   H10
   455    454    453    469      9     0.00   0.54392   3 ;     C7-    C6-    C5-   H11
   455    456    457    458      9     0.00   2.17568   3 ;     C7-    C8-    C9-   C10
   455    456    457    476      9     0.00   0.54392   3 ;     C7-    C8-    C9-   H18
   455    456    457    477      9     0.00   0.54392   3 ;     C7-    C8-    C9-   H19
   456    455    454    470      9     0.00   0.54392   3 ;     C8-    C7-    C6-   H12
   456    455    454    471      9     0.00   0.54392   3 ;     C8-    C7-    C6-   H13
   456    457    458    478      9     0.00   0.54392   3 ;     C8-    C9-   C10-   H20
   456    457    458    479      9     0.00   0.54392   3 ;     C8-    C9-   C10-   H21
   456    457    458    480      9     0.00   0.54392   3 ;     C8-    C9-   C10-   H22
   457    456    455    472      9     0.00   0.54392   3 ;     C9-    C8-    C7-   H14
   457    456    455    473      9     0.00   0.54392   3 ;     C9-    C8-    C7-   H15
   458    457    456    474      9     0.00   0.54392   3 ;    C10-    C9-    C8-   H16
   458    457    456    475      9     0.00   0.54392   3 ;    C10-    C9-    C8-   H17
   459    449    450    462      9     0.00   0.50208   3 ;     H1-    C1-    C2-    H4
   459    449    450    463      9     0.00   0.50208   3 ;     H1-    C1-    C2-    H5
   460    449    450    462      9     0.00   0.50208   3 ;     H2-    C1-    C2-    H4
   460    449    450    463      9     0.00   0.50208   3 ;     H2-    C1-    C2-    H5
   461    449    450    462      9     0.00   0.50208   3 ;     H3-    C1-    C2-    H4
   461    449    450    463      9     0.00   0.50208   3 ;     H3-    C1-    C2-    H5
   462    450    451    464      9     0.00   0.50208   3 ;     H4-    C2-    C3-    H6
   462    450    451    465      9     0.00   0.50208   3 ;     H4-    C2-    C3-    H7
   463    450    451    464      9     0.00   0.50208   3 ;     H5-    C2-    C3-    H6
   463    450    451    465      9     0.00   0.50208   3 ;     H5-    C2-    C3-    H7
   464    451    452    466      9     0.00   0.50208   3 ;     H6-    C3-    C4-    H8
   464    451    452    467      9     0.00   0.50208   3 ;     H6-    C3-    C4-    H9
   465    451    452    466      9     0.00   0.50208   3 ;     H7-    C3-    C4-    H8
   465    451    452    467      9     0.00   0.50208   3 ;     H7-    C3-    C4-    H9
   466    452    453    468      9     0.00   0.50208   3 ;     H8-    C4-    C5-   H10
   466    452    453    469      9     0.00   0.50208   3 ;     H8-    C4-    C5-   H11
   467    452    453    468      9     0.00   0.50208   3 ;     H9-    C4-    C5-   H10
   467    452    453    469      9     0.00   0.50208   3 ;     H9-    C4-    C5-   H11
   468    453    454    470      9     0.00   0.50208   3 ;    H10-    C5-    C6-   H12
   468    453    454    471      9     0.00   0.50208   3 ;    H10-    C5-    C6-   H13
   469    453    454    470      9     0.00   0.50208   3 ;    H11-    C5-    C6-   H12
   469    453    454    471      9     0.00   0.50208   3 ;    H11-    C5-    C6-   H13
   470    454    455    472      9     0.00   0.50208   3 ;    H12-    C6-    C7-   H14
   470    454    455    473      9     0.00   0.50208   3 ;    H12-    C6-    C7-   H15
   471    454    455    472      9     0.00   0.50208   3 ;    H13-    C6-    C7-   H14
   471    454    455    473      9     0.00   0.50208   3 ;    H13-    C6-    C7-   H15
   472    455    456    474      9     0.00   0.50208   3 ;    H14-    C7-    C8-   H16
   472    455    456    475      9     0.00   0.50208   3 ;    H14-    C7-    C8-   H17
   473    455    456    474      9     0.00   0.50208   3 ;    H15-    C7-    C8-   H16
   473    455    456    475      9     0.00   0.50208   3 ;    H15-    C7-    C8-   H17
   474    456    457    476      9     0.00   0.50208   3 ;    H16-    C8-    C9-   H18
   474    456    457    477      9     0.00   0.50208   3 ;    H16-    C8-    C9-   H19
   475    456    457    476      9     0.00   0.50208   3 ;    H17-    C8-    C9-   H18
   475    456    457    477      9     0.00   0.50208   3 ;    H17-    C8-    C9-   H19
   476    457    458    478      9     0.00   0.50208   3 ;    H18-    C9-   C10-   H20
   476    457    458    479      9     0.00   0.50208   3 ;    H18-    C9-   C10-   H21
   476    457    458    480      9     0.00   0.50208   3 ;    H18-    C9-   C10-   H22
   477    457    458    478      9     0.00   0.50208   3 ;    H19-    C9-   C10-   H20
   477    457    458    479      9     0.00   0.50208   3 ;    H19-    C9-   C10-   H21
   477    457    458    480      9     0.00   0.50208   3 ;    H19-    C9-   C10-   H22
   481    482    483    484      9     0.00   2.17568   3 ;     C1-    C2-    C3-    C4
   481    482    483    496      9     0.00   0.54392   3 ;     C1-    C2-    C3-    H6
   481    482    483    497      9     0.00   0.54392   3 ;     C1-    C2-    C3-    H7
   482    483    484    485      9     0.00   2.17568   3 ;     C2-    C3-    C4-    C5
   482    483    484    498      9     0.00   0.54392   3 ;     C2-    C3-    C4-    H8
   482    483    484    499      9     0.00   0.54392   3 ;     C2-    C3-    C4-    H9
   483    482    481    491      9     0.00   0.54392   3 ;     C3-    C2-    C1-    H1
   483    482    481    492      9     0.00   0.54392   3 ;     C3-    C2-    C1-    H2
   483    482    481    493      9     0.00   0.54392   3 ;     C3-    C2-    C1-    H3
   483    484    485    486      9     0.00   2.17568   3 ;     C3-    C4-    C5-    C6
   483    484    485    500      9     0.00   0.54392   3 ;     C3-    C4-    C5-   H10
   483    484    485    501      9     0.00   0.54392   3 ;     C3-    C4-    C5-   H11
   484    483    482    494      9     0.00   0.54392   3 ;     C4-    C3-    C2-    H4
   484    483    482    495      9     0.00   0.54392   3 ;     C4-    C3-    C2-    H5
   484    485    486    487      9     0.00   2.17568   3 ;     C4-    C5-    C6-    C7
   484    485    486    502      9     0.00   0.54392   3 ;     C4-    C5-    C6-   H12
   484    485    486    503      9     0.00   0.54392   3 ;     C4-    C5-    C6-   H13
   485    484    483    496      9     0.00   0.54392   3 ;     C5-    C4-    C3-    H6
   485    484    483    497      9     0.00   0.54392   3 ;     C5-    C4-    C3-    H7
   485    486    487    488      9     0.00   2.17568   3 ;     C5-    C6-    C7-    C8
   485    486    487    504      9     0.00   0.54392   3 ;     C5-    C6-    C7-   H14
   485    486    487    505      9     0.00   0.54392   3 ;     C5-    C6-    C7-   H15
   486    485    484    498      9     0.00   0.54392   3 ;     C6-    C5-    C4-    H8
   486    485    484    499      9     0.00   0.54392   3 ;     C6-    C5-    C4-    H9
   486    487    488    489      9     0.00   2.17568   3 ;     C6-    C7-    C8-    C9
   486    487    488    506      9     0.00   0.54392   3 ;     C6-    C7-    C8-   H16
   486    487    488    507      9     0.00   0.54392   3 ;     C6-    C7-    C8-   H17
   487    486    485    500      9     0.00   0.54392   3 ;     C7-    C6-    C5-   H10
   487    486    485    501      9     0.00   0.54392   3 ;     C7-    C6-    C5-   H11
   487    488    489    490      9     0.00   2.17568   3 ;     C7-    C8-    C9-   C10
   487    488    489    508      9     0.00   0.54392   3 ;     C7-    C8-    C9-   H18
   487    488    489    509      9     0.00   0.54392   3 ;     C7-    C8-    C9-   H19
   488    487    486    502      9     0.00   0.54392   3 ;     C8-    C7-    C6-   H12
   488    487    486    503      9     0.00   0.54392   3 ;     C8-    C7-    C6-   H13
   488    489    490    510      9     0.00   0.54392   3 ;     C8-    C9-   C10-   H20
   488    489    490    511      9     0.00   0.54392   3 ;     C8-    C9-   C10-   H21
   488    489    490    512      9     0.00   0.54392   3 ;     C8-    C9-   C10-   H22
   489    488    487    504      9     0.00   0.54392   3 ;     C9-    C8-    C7-   H14
   489    488    487    505      9     0.00   0.54392   3 ;     C9-    C8-    C7-   H15
   490    489    488    506      9     0.00   0.54392   3 ;    C10-    C9-    C8-   H16
   490    489    488    507      9     0.00   0.54392   3 ;    C10-    C9-    C8-   H17
   491    481    482    494      9     0.00   0.50208   3 ;     H1-    C1-    C2-    H4
   491    481    482    495      9     0.00   0.50208   3 ;     H1-    C1-    C2-    H5
   492    481    482    494      9     0.00   0.50208   3 ;     H2-    C1-    C2-    H4
   492    481    482    495      9     0.00   0.50208   3 ;     H2-    C1-    C2-    H5
   493    481    482    494      9     0.00   0.50208   3 ;     H3-    C1-    C2-    H4
   493    481    482    495      9     0.00   0.50208   3 ;     H3-    C1-    C2-    H5
   494    482    483    496      9     0.00   0.50208   3 ;     H4-    C2-    C3-    H6
   494    482    483    497      9     0.00   0.50208   3 ;     H4-    C2-    C3-    H7
   495    482    483    496      9     0.00   0.50208   3 ;     H5-    C2-    C3-    H6
   495    482    483    497      9     0.00   0.50208   3 ;     H5-    C2-    C3-    H7
   496    483    484    498      9     0.00   0.50208   3 ;     H6-    C3-    C4-    H8
   496    483    484    499      9     0.00   0.50208   3 ;     H6-    C3-    C4-    H9
   497    483    484    498      9     0.00   0.50208   3 ;     H7-    C3-    C4-    H8
   497    483    484    499      9     0.00   0.50208   3 ;     H7-    C3-    C4-    H9
   498    484    485    500      9     0.00   0.50208   3 ;     H8-    C4-    C5-   H10
   498    484    485    501      9     0.00   0.50208   3 ;     H8-    C4-    C5-   H11
   499    484    485    500      9     0.00   0.50208   3 ;     H9-    C4-    C5-   H10
   499    484    485    501      9     0.00   0.50208   3 ;     H9-    C4-    C5-   H11
   500    485    486    502      9     0.00   0.50208   3 ;    H10-    C5-    C6-   H12
   500    485    486    503      9     0.00   0.50208   3 ;    H10-    C5-    C6-   H13
   501    485    486    502      9     0.00   0.50208   3 ;    H11-    C5-    C6-   H12
   501    485    486    503      9     0.00   0.50208   3 ;    H11-    C5-    C6-   H13
   502    486    487    504      9     0.00   0.50208   3 ;    H12-    C6-    C7-   H14
   502    486    487    505      9     0.00   0.50208   3 ;    H12-    C6-    C7-   H15
   503    486    487    504      9     0.00   0.50208   3 ;    H13-    C6-    C7-   H14
   503    486    487    505      9     0.00   0.50208   3 ;    H13-    C6-    C7-   H15
   504    487    488    506      9     0.00   0.50208   3 ;    H14-    C7-    C8-   H16
   504    487    488    507      9     0.00   0.50208   3 ;    H14-    C7-    C8-   H17
   505    487    488    506      9     0.00   0.50208   3 ;    H15-    C7-    C8-   H16
   505    487    488    507      9     0.00   0.50208   3 ;    H15-    C7-    C8-   H17
   506    488    489    508      9     0.00   0.50208   3 ;    H16-    C8-    C9-   H18
   506    488    489    509      9     0.00   0.50208   3 ;    H16-    C8-    C9-   H19
   507    488    489    508      9     0.00   0.50208   3 ;    H17-    C8-    C9-   H18
   507    488    489    509      9     0.00   0.50208   3 ;    H17-    C8-    C9-   H19
   508    489    490    510      9     0.00   0.50208   3 ;    H18-    C9-   C10-   H20
   508    489    490    511      9     0.00   0.50208   3 ;    H18-    C9-   C10-   H21
   508    489    490    512      9     0.00   0.50208   3 ;    H18-    C9-   C10-   H22
   509    489    490    510      9     0.00   0.50208   3 ;    H19-    C9-   C10-   H20
   509    489    490    511      9     0.00   0.50208   3 ;    H19-    C9-   C10-   H21
   509    489    490    512      9     0.00   0.50208   3 ;    H19-    C9-   C10-   H22
   513    514    515    516      9     0.00   2.17568   3 ;     C1-    C2-    C3-    C4
   513    514    515    528      9     0.00   0.54392   3 ;     C1-    C2-    C3-    H6
   513    514    515    529      9     0.00   0.54392   3 ;     C1-    C2-    C3-    H7
   514    515    516    517      9     0.00   2.17568   3 ;     C2-    C3-    C4-    C5
   514    515    516    530      9     0.00   0.54392   3 ;     C2-    C3-    C4-    H8
   514    515    516    531      9     0.00   0.54392   3 ;     C2-    C3-    C4-    H9
   515    514    513    523      9     0.00   0.54392   3 ;     C3-    C2-    C1-    H1
   515    514    513    524      9     0.00   0.54392   3 ;     C3-    C2-    C1-    H2
   515    514    513    525      9     0.00   0.54392   3 ;     C3-    C2-    C1-    H3
   515    516    517    518      9     0.00   2.17568   3 ;     C3-    C4-    C5-    C6
   515    516    517    532      9     0.00   0.54392   3 ;     C3-    C4-    C5-   H10
   515    516    517    533      9     0.00   0.54392   3 ;     C3-    C4-    C5-   H11
   516    515    514    526      9     0.00   0.54392   3 ;     C4-    C3-    C2-    H4
   516    515    514    527      9     0.00   0.54392   3 ;     C4-    C3-    C2-    H5
   516    517    518    519      9     0.00   2.17568   3 ;     C4-    C5-    C6-    C7
   516    517    518    534      9     0.00   0.54392   3 ;     C4-    C5-    C6-   H12
   516    517    518    535      9     0.00   0.54392   3 ;     C4-    C5-    C6-   H13
   517    516    515    528      9     0.00   0.54392   3 ;     C5-    C4-    C3-    H6
   517    516    515    529      9     0.00   0.54392   3 ;     C5-    C4-    C3-    H7
   517    518    519    520      9     0.00   2.17568   3 ;     C5-    C6-    C7-    C8
   517    518    519    536      9     0.00   0.54392   3 ;     C5-    C6-    C7-   H14
   517    518    519    537      9     0.00   0.54392   3 ;     C5-    C6-    C7-   H15
   518    517    516    530      9     0.00   0.54392   3 ;     C6-    C5-    C4-    H8
   518    517    516    531      9     0.00   0.54392   3 ;     C6-    C5-    C4-    H9
   518    519    520    521      9     0.00   2.17568   3 ;     C6-    C7-    C8-    C9
   518    519    520    538      9     0.00   0.54392   3 ;     C6-    C7-    C8-   H16
   518    519    520    539      9     0.00   0.54392   3 ;     C6-    C7-    C8-   H17
   519    518    517    532      9     0.00   0.54392   3 ;     C7-    C6-    C5-   H10
   519    518    517    533      9     0.00   0.54392   3 ;     C7-    C6-    C5-   H11
   519    520    521    522      9     0.00   2.17568   3 ;     C7-    C8-    C9-   C10
   519    520    521    540      9     0.00   0.54392   3 ;     C7-    C8-    C9-   H18
   519    520    521    541      9     0.00   0.54392   3 ;     C7-    C8-    C9-   H19
   520    519    518    534      9     0.00   0.54392   3 ;     C8-    C7-    C6-   H12
   520    519    518    535      9     0.00   0.54392   3 ;     C8-    C7-    C6-   H13
   520    521    522    542      9     0.00   0.54392   3 ;     C8-    C9-   C10-   H20
   520    521    522    543      9     0.00   0.54392   3 ;     C8-    C9-   C10-   H21
   520    521    522    544      9     0.00   0.54392   3 ;     C8-    C9-   C10-   H22
   521    520    519    536      9     0.00   0.54392   3 ;     C9-    C8-    C7-   H14
   521    520    519    537      9     0.00   0.54392   3 ;     C9-    C8-    C7-   H15
   522    521    520    538      9     0.00   0.54392   3 ;    C10-    C9-    C8-   H16
   522    521    520    539      9     0.00   0.54392   3 ;    C10-    C9-    C8-   H17
   523    513    514    526      9     0.00   0.50208   3 ;     H1-    C1-    C2-    H4
   523    513    514    527      9     0.00   0.50208   3 ;     H1-    C1-    C2-    H5
   524    513    514    526      9     0.00   0.50208   3 ;     H2-    C1-    C2-    H4
   524    513    514    527      9     0.00   0.50208   3 ;     H2-    C1-    C2-    H5
   525    513    514    526      9     0.00   0.50208   3 ;     H3-    C1-    C2-    H4
   525    513    514    527      9     0.00   0.50208   3 ;     H3-    C1-    C2-    H5
   526    514    515    528      9     0.00   0.50208   3 ;     H4-    C2-    C3-    H6
   526    514    515    529      9     0.00   0.50208   3 ;     H4-    C2-    C3-    H7
   527    514    515    528      9     0.00   0.50208   3 ;     H5-    C2-    C3-    H6
   527    514    515    529      9     0.00   0.50208   3 ;     H5-    C2-    C3-    H7
   528    515    516    530      9     0.00   0.50208   3 ;     H6-    C3-    C4-    H8
   528    515    516    531      9     0.00   0.50208   3 ;     H6-    C3-    C4-    H9
   529    515    516    530      9     0.00   0.50208   3 ;     H7-    C3-    C4-    H8
   529    515    516    531      9     0.00   0.50208   3 ;     H7-    C3-    C4-    H9
   530    516    517    532      9     0.00   0.50208   3 ;     H8-    C4-    C5-   H10
   530    516    517    533      9     0.00   0.50208   3 ;     H8-    C4-    C5-   H11
   531    516    517    532      9     0.00   0.50208   3 ;     H9-    C4-    C5-   H10
   531    516    517    533      9     0.00   0.50208   3 ;     H9-    C4-    C5-   H11
   532    517    518    534      9     0.00   0.50208   3 ;    H10-    C5-    C6-   H12
   532    517    518    535      9     0.00   0.50208   3 ;    H10-    C5-    C6-   H13
   533    517    518    534      9     0.00   0.50208   3 ;    H11-    C5-    C6-   H12
   533    517    518    535      9     0.00   0.50208   3 ;    H11-    C5-    C6-   H13
   534    518    519    536      9     0.00   0.50208   3 ;    H12-    C6-    C7-   H14
   534    518    519    537      9     0.00   0.50208   3 ;    H12-    C6-    C7-   H15
   535    518    519    536      9     0.00   0.50208   3 ;    H13-    C6-    C7-   H14
   535    518    519    537      9     0.00   0.50208   3 ;    H13-    C6-    C7-   H15
   536    519    520    538      9     0.00   0.50208   3 ;    H14-    C7-    C8-   H16
   536    519    520    539      9     0.00   0.50208   3 ;    H14-    C7-    C8-   H17
   537    519    520    538      9     0.00   0.50208   3 ;    H15-    C7-    C8-   H16
   537    519    520    539      9     0.00   0.50208   3 ;    H15-    C7-    C8-   H17
   538    520    521    540      9     0.00   0.50208   3 ;    H16-    C8-    C9-   H18
   538    520    521    541      9     0.00   0.50208   3 ;    H16-    C8-    C9-   H19
   539    520    521    540      9     0.00   0.50208   3 ;    H17-    C8-    C9-   H18
   539    520    521    541      9     0.00   0.50208   3 ;    H17-    C8-    C9-   H19
   540    521    522    542      9     0.00   0.50208   3 ;    H18-    C9-   C10-   H20
   540    521    522    543      9     0.00   0.50208   3 ;    H18-    C9-   C10-   H21
   540    521    522    544      9     0.00   0.50208   3 ;    H18-    C9-   C10-   H22
   541    521    522    542      9     0.00   0.50208   3 ;    H19-    C9-   C10-   H20
   541    521    522    543      9     0.00   0.50208   3 ;    H19-    C9-   C10-   H21
   541    521    522    544      9     0.00   0.50208   3 ;    H19-    C9-   C10-   H22
   545    546    547    548      9     0.00   2.17568   3 ;     C1-    C2-    C3-    C4
   545    546    547    560      9     0.00   0.54392   3 ;     C1-    C2-    C3-    H6
   545    546    547    561      9     0.00   0.54392   3 ;     C1-    C2-    C3-    H7
   546    547    548    549      9     0.00   2.17568   3 ;     C2-    C3-    C4-    C5
   546    547    548    562      9     0.00   0.54392   3 ;     C2-    C3-    C4-    H8
   546    547    548    563      9     0.00   0.54392   3 ;     C2-    C3-    C4-    H9
   547    546    545    555      9     0.00   0.54392   3 ;     C3-    C2-    C1-    H1
   547    546    545    556      9     0.00   0.54392   3 ;     C3-    C2-    C1-    H2
   547    546    545    557      9     0.00   0.54392   3 ;     C3-    C2-    C1-    H3
   547    548    549    550      9     0.00   2.17568   3 ;     C3-    C4-    C5-    C6
   547    548    549    564      9     0.00   0.54392   3 ;     C3-    C4-    C5-   H10
   547    548    549    565      9     0.00   0.54392   3 ;     C3-    C4-    C5-   H11
   548    547    546    558      9     0.00   0.54392   3 ;     C4-    C3-    C2-    H4
   548    547    546    559      9     0.00   0.54392   3 ;     C4-    C3-    C2-    H5
   548    549    550    551      9     0.00   2.17568   3 ;     C4-    C5-    C6-    C7
   548    549    550    566      9     0.00   0.54392   3 ;     C4-    C5-    C6-   H12
   548    549    550    567      9     0.00   0.54392   3 ;     C4-    C5-    C6-   H13
   549    548    547    560      9     0.00   0.54392   3 ;     C5-    C4-    C3-    H6
   549    548    547    561      9     0.00   0.54392   3 ;     C5-    C4-    C3-    H7
   549    550    551    552      9     0.00   2.17568   3 ;     C5-    C6-    C7-    C8
   549    550    551    568      9     0.00   0.54392   3 ;     C5-    C6-    C7-   H14
   549    550    551    569      9     0.00   0.54392   3 ;     C5-    C6-    C7-   H15
   550    549    548    562      9     0.00   0.54392   3 ;     C6-    C5-    C4-    H8
   550    549    548    563      9     0.00   0.54392   3 ;     C6-    C5-    C4-    H9
   550    551    552    553      9     0.00   2.17568   3 ;     C6-    C7-    C8-    C9
   550    551    552    570      9     0.00   0.54392   3 ;     C6-    C7-    C8-   H16
   550    551    552    571      9     0.00   0.54392   3 ;     C6-    C7-    C8-   H17
   551    550    549    564      9     0.00   0.54392   3 ;     C7-    C6-    C5-   H10
   551    550    549    565      9     0.00   0.54392   3 ;     C7-    C6-    C5-   H11
   551    552    553    554      9     0.00   2.17568   3 ;     C7-    C8-    C9-   C10
   551    552    553    572      9     0.00   0.54392   3 ;     C7-    C8-    C9-   H18
   551    552    553    573      9     0.00   0.54392   3 ;     C7-    C8-    C9-   H19
   552    551    550    566      9     0.00   0.54392   3 ;     C8-    C7-    C6-   H12
   552    551    550    567      9     0.00   0.54392   3 ;     C8-    C7-    C6-   H13
   552    553    554    574      9     0.00   0.54392   3 ;     C8-    C9-   C10-   H20
   552    553    554    575      9     0.00   0.54392   3 ;     C8-    C9-   C10-   H21
   552    553    554    576      9     0.00   0.54392   3 ;     C8-    C9-   C10-   H22
   553    552    551    568      9     0.00   0.54392   3 ;     C9-    C8-    C7-   H14
   553    552    551    569      9     0.00   0.54392   3 ;     C9-    C8-    C7-   H15
   554    553    552    570      9     0.00   0.54392   3 ;    C10-    C9-    C8-   H16
   554    553    552    571      9     0.00   0.54392   3 ;    C10-    C9-    C8-   H17
   555    545    546    558      9     0.00   0.50208   3 ;     H1-    C1-    C2-    H4
   555    545    546    559      9     0.00   0.50208   3 ;     H1-    C1-    C2-    H5
   556    545    546    558      9     0.00   0.50208   3 ;     H2-    C1-    C2-    H4
   556    545    546    559      9     0.00   0.50208   3 ;     H2-    C1-    C2-    H5
   557    545    546    558      9     0.00   0.50208   3 ;     H3-    C1-    C2-    H4
   557    545    546    559      9     0.00   0.50208   3 ;     H3-    C1-    C2-    H5
   558    546    547    560      9     0.00   0.50208   3 ;     H4-    C2-    C3-    H6
   558    546    547    561      9     0.00   0.50208   3 ;     H4-    C2-    C3-    H7
   559    546    547    560      9     0.00   0.50208   3 ;     H5-    C2-    C3-    H6
   559    546    547    561      9     0.00   0.50208   3 ;     H5-    C2-    C3-    H7
   560    547    548    562      9     0.00   0.50208   3 ;     H6-    C3-    C4-    H8
   560    547    548    563      9     0.00   0.50208   3 ;     H6-    C3-    C4-    H9
   561    547    548    562      9     0.00   0.50208   3 ;     H7-    C3-    C4-    H8
   561    547    548    563      9     0.00   0.50208   3 ;     H7-    C3-    C4-    H9
   562    548    549    564      9     0.00   0.50208   3 ;     H8-    C4-    C5-   H10
   562    548    549    565      9     0.00   0.50208   3 ;     H8-    C4-    C5-   H11
   563    548    549    564      9     0.00   0.50208   3 ;     H9-    C4-    C5-   H10
   563    548    549    565      9     0.00   0.50208   3 ;     H9-    C4-    C5-   H11
   564    549    550    566      9     0.00   0.50208   3 ;    H10-    C5-    C6-   H12
   564    549    550    567      9     0.00   0.50208   3 ;    H10-    C5-    C6-   H13
   565    549    550    566      9     0.00   0.50208   3 ;    H11-    C5-    C6-   H12
   565    549    550    567      9     0.00   0.50208   3 ;    H11-    C5-    C6-   H13
   566    550    551    568      9     0.00   0.50208   3 ;    H12-    C6-    C7-   H14
   566    550    551    569      9     0.00   0.50208   3 ;    H12-    C6-    C7-   H15
   567    550    551    568      9     0.00   0.50208   3 ;    H13-    C6-    C7-   H14
   567    550    551    569      9     0.00   0.50208   3 ;    H13-    C6-    C7-   H15
   568    551    552    570      9     0.00   0.50208   3 ;    H14-    C7-    C8-   H16
   568    551    552    571      9     0.00   0.50208   3 ;    H14-    C7-    C8-   H17
   569    551    552    570      9     0.00   0.50208   3 ;    H15-    C7-    C8-   H16
   569    551    552    571      9     0.00   0.50208   3 ;    H15-    C7-    C8-   H17
   570    552    553    572      9     0.00   0.50208   3 ;    H16-    C8-    C9-   H18
   570    552    553    573      9     0.00   0.50208   3 ;    H16-    C8-    C9-   H19
   571    552    553    572      9     0.00   0.50208   3 ;    H17-    C8-    C9-   H18
   571    552    553    573      9     0.00   0.50208   3 ;    H17-    C8-    C9-   H19
   572    553    554    574      9     0.00   0.50208   3 ;    H18-    C9-   C10-   H20
   572    553    554    575      9     0.00   0.50208   3 ;    H18-    C9-   C10-   H21
   572    553    554    576      9     0.00   0.50208   3 ;    H18-    C9-   C10-   H22
   573    553    554    574      9     0.00   0.50208   3 ;    H19-    C9-   C10-   H20
   573    553    554    575      9     0.00   0.50208   3 ;    H19-    C9-   C10-   H21
   573    553    554    576      9     0.00   0.50208   3 ;    H19-    C9-   C10-   H22
   577    578    579    580      9     0.00   2.17568   3 ;     C1-    C2-    C3-    C4
   577    578    579    592      9     0.00   0.54392   3 ;     C1-    C2-    C3-    H6
   577    578    579    593      9     0.00   0.54392   3 ;     C1-    C2-    C3-    H7
   578    579    580    581      9     0.00   2.17568   3 ;     C2-    C3-    C4-    C5
   578    579    580    594      9     0.00   0.54392   3 ;     C2-    C3-    C4-    H8
   578    579    580    595      9     0.00   0.54392   3 ;     C2-    C3-    C4-    H9
   579    578    577    587      9     0.00   0.54392   3 ;     C3-    C2-    C1-    H1
   579    578    577    588      9     0.00   0.54392   3 ;     C3-    C2-    C1-    H2
   579    578    577    589      9     0.00   0.54392   3 ;     C3-    C2-    C1-    H3
   579    580    581    582      9     0.00   2.17568   3 ;     C3-    C4-    C5-    C6
   579    580    581    596      9     0.00   0.54392   3 ;     C3-    C4-    C5-   H10
   579    580    581    597      9     0.00   0.54392   3 ;     C3-    C4-    C5-   H11
   580    579    578    590      9     0.00   0.54392   3 ;     C4-    C3-    C2-    H4
   580    579    578    591      9     0.00   0.54392   3 ;     C4-    C3-    C2-    H5
   580    581    582    583      9     0.00   2.17568   3 ;     C4-    C5-    C6-    C7
   580    581    582    598      9     0.00   0.54392   3 ;     C4-    C5-    C6-   H12
   580    581    582    599      9     0.00   0.54392   3 ;     C4-    C5-    C6-   H13
   581    580    579    592      9     0.00   0.54392   3 ;     C5-    C4-    C3-    H6
   581    580    579    593      9     0.00   0.54392   3 ;     C5-    C4-    C3-    H7
   581    582    583    584      9     0.00   2.17568   3 ;     C5-    C6-    C7-    C8
   581    582    583    600      9     0.00   0.54392   3 ;     C5-    C6-    C7-   H14
   581    582    583    601      9     0.00   0.54392   3 ;     C5-    C6-    C7-   H15
   582    581    580    594      9     0.00   0.54392   3 ;     C6-    C5-    C4-    H8
   582    581    580    595      9     0.00   0.54392   3 ;     C6-    C5-    C4-    H9
   582    583    584    585      9     0.00   2.17568   3 ;     C6-    C7-    C8-    C9
   582    583    584    602      9     0.00   0.54392   3 ;     C6-    C7-    C8-   H16
   582    583    584    603      9     0.00   0.54392   3 ;     C6-    C7-    C8-   H17
   583    582    581    596      9     0.00   0.54392   3 ;     C7-    C6-    C5-   H10
   583    582    581    597      9     0.00   0.54392   3 ;     C7-    C6-    C5-   H11
   583    584    585    586      9     0.00   2.17568   3 ;     C7-    C8-    C9-   C10
   583    584    585    604      9     0.00   0.54392   3 ;     C7-    C8-    C9-   H18
   583    584    585    605      9     0.00   0.54392   3 ;     C7-    C8-    C9-   H19
   584    583    582    598      9     0.00   0.54392   3 ;     C8-    C7-    C6-   H12
   584    583    582    599      9     0.00   0.54392   3 ;     C8-    C7-    C6-   H13
   584    585    586    606      9     0.00   0.54392   3 ;     C8-    C9-   C10-   H20
   584    585    586    607      9     0.00   0.54392   3 ;     C8-    C9-   C10-   H21
   584    585    586    608      9     0.00   0.54392   3 ;     C8-    C9-   C10-   H22
   585    584    583    600      9     0.00   0.54392   3 ;     C9-    C8-    C7-   H14
   585    584    583    601      9     0.00   0.54392   3 ;     C9-    C8-    C7-   H15
   586    585    584    602      9     0.00   0.54392   3 ;    C10-    C9-    C8-   H16
   586    585    584    603      9     0.00   0.54392   3 ;    C10-    C9-    C8-   H17
   587    577    578    590      9     0.00   0.50208   3 ;     H1-    C1-    C2-    H4
   587    577    578    591      9     0.00   0.50208   3 ;     H1-    C1-    C2-    H5
   588    577    578    590      9     0.00   0.50208   3 ;     H2-    C1-    C2-    H4
   588    577    578    591      9     0.00   0.50208   3 ;     H2-    C1-    C2-    H5
   589    577    578    590      9     0.00   0.50208   3 ;     H3-    C1-    C2-    H4
   589    577    578    591      9     0.00   0.50208   3 ;     H3-    C1-    C2-    H5
   590    578    579    592      9     0.00   0.50208   3 ;     H4-    C2-    C3-    H6
   590    578    579    593      9     0.00   0.50208   3 ;     H4-    C2-    C3-    H7
   591    578    579    592      9     0.00   0.50208   3 ;     H5-    C2-    C3-    H6
   591    578    579    593      9     0.00   0.50208   3 ;     H5-    C2-    C3-    H7
   592    579    580    594      9     0.00   0.50208   3 ;     H6-    C3-    C4-    H8
   592    579    580    595      9     0.00   0.50208   3 ;     H6-    C3-    C4-    H9
   593    579    580    594      9     0.00   0.50208   3 ;     H7-    C3-    C4-    H8
   593    579    580    595      9     0.00   0.50208   3 ;     H7-    C3-    C4-    H9
   594    580    581    596      9     0.00   0.50208   3 ;     H8-    C4-    C5-   H10
   594    580    581    597      9     0.00   0.50208   3 ;     H8-    C4-    C5-   H11
   595    580    581    596      9     0.00   0.50208   3 ;     H9-    C4-    C5-   H10
   595    580    581    597      9     0.00   0.50208   3 ;     H9-    C4-    C5-   H11
   596    581    582    598      9     0.00   0.50208   3 ;    H10-    C5-    C6-   H12
   596    581    582    599      9     0.00   0.50208   3 ;    H10-    C5-    C6-   H13
   597    581    582    598      9     0.00   0.50208   3 ;    H11-    C5-    C6-   H12
   597    581    582    599      9     0.00   0.50208   3 ;    H11-    C5-    C6-   H13
   598    582    583    600      9     0.00   0.50208   3 ;    H12-    C6-    C7-   H14
   598    582    583    601      9     0.00   0.50208   3 ;    H12-    C6-    C7-   H15
   599    582    583    600      9     0.00   0.50208   3 ;    H13-    C6-    C7-   H14
   599    582    583    601      9     0.00   0.50208   3 ;    H13-    C6-    C7-   H15
   600    583    584    602      9     0.00   0.50208   3 ;    H14-    C7-    C8-   H16
   600    583    584    603      9     0.00   0.50208   3 ;    H14-    C7-    C8-   H17
   601    583    584    602      9     0.00   0.50208   3 ;    H15-    C7-    C8-   H16
   601    583    584    603      9     0.00   0.50208   3 ;    H15-    C7-    C8-   H17
   602    584    585    604      9     0.00   0.50208   3 ;    H16-    C8-    C9-   H18
   602    584    585    605      9     0.00   0.50208   3 ;    H16-    C8-    C9-   H19
   603    584    585    604      9     0.00   0.50208   3 ;    H17-    C8-    C9-   H18
   603    584    585    605      9     0.00   0.50208   3 ;    H17-    C8-    C9-   H19
   604    585    586    606      9     0.00   0.50208   3 ;    H18-    C9-   C10-   H20
   604    585    586    607      9     0.00   0.50208   3 ;    H18-    C9-   C10-   H21
   604    585    586    608      9     0.00   0.50208   3 ;    H18-    C9-   C10-   H22
   605    585    586    606      9     0.00   0.50208   3 ;    H19-    C9-   C10-   H20
   605    585    586    607      9     0.00   0.50208   3 ;    H19-    C9-   C10-   H21
   605    585    586    608      9     0.00   0.50208   3 ;    H19-    C9-   C10-   H22
   609    610    611    612      9     0.00   2.17568   3 ;     C1-    C2-    C3-    C4
   609    610    611    624      9     0.00   0.54392   3 ;     C1-    C2-    C3-    H6
   609    610    611    625      9     0.00   0.54392   3 ;     C1-    C2-    C3-    H7
   610    611    612    613      9     0.00   2.17568   3 ;     C2-    C3-    C4-    C5
   610    611    612    626      9     0.00   0.54392   3 ;     C2-    C3-    C4-    H8
   610    611    612    627      9     0.00   0.54392   3 ;     C2-    C3-    C4-    H9
   611    610    609    619      9     0.00   0.54392   3 ;     C3-    C2-    C1-    H1
   611    610    609    620      9     0.00   0.54392   3 ;     C3-    C2-    C1-    H2
   611    610    609    621      9     0.00   0.54392   3 ;     C3-    C2-    C1-    H3
   611    612    613    614      9     0.00   2.17568   3 ;     C3-    C4-    C5-    C6
   611    612    613    628      9     0.00   0.54392   3 ;     C3-    C4-    C5-   H10
   611    612    613    629      9     0.00   0.54392   3 ;     C3-    C4-    C5-   H11
   612    611    610    622      9     0.00   0.54392   3 ;     C4-    C3-    C2-    H4
   612    611    610    623      9     0.00   0.54392   3 ;     C4-    C3-    C2-    H5
   612    613    614    615      9     0.00   2.17568   3 ;     C4-    C5-    C6-    C7
   612    613    614    630      9     0.00   0.54392   3 ;     C4-    C5-    C6-   H12
   612    613    614    631      9     0.00   0.54392   3 ;     C4-    C5-    C6-   H13
   613    612    611    624      9     0.00   0.54392   3 ;     C5-    C4-    C3-    H6
   613    612    611    625      9     0.00   0.54392   3 ;     C5-    C4-    C3-    H7
   613    614    615    616      9     0.00   2.17568   3 ;     C5-    C6-    C7-    C8
   613    614    615    632      9     0.00   0.54392   3 ;     C5-    C6-    C7-   H14
   613    614    615    633      9     0.00   0.54392   3 ;     C5-    C6-    C7-   H15
   614    613    612    626      9     0.00   0.54392   3 ;     C6-    C5-    C4-    H8
   614    613    612    627      9     0.00   0.54392   3 ;     C6-    C5-    C4-    H9
   614    615    616    617      9     0.00   2.17568   3 ;     C6-    C7-    C8-    C9
   614    615    616    634      9     0.00   0.54392   3 ;     C6-    C7-    C8-   H16
   614    615    616    635      9     0.00   0.54392   3 ;     C6-    C7-    C8-   H17
   615    614    613    628      9     0.00   0.54392   3 ;     C7-    C6-    C5-   H10
   615    614    613    629      9     0.00   0.54392   3 ;     C7-    C6-    C5-   H11
   615    616    617    618      9     0.00   2.17568   3 ;     C7-    C8-    C9-   C10
   615    616    617    636      9     0.00   0.54392   3 ;     C7-    C8-    C9-   H18
   615    616    617    637      9     0.00   0.54392   3 ;     C7-    C8-    C9-   H19
   616    615    614    630      9     0.00   0.54392   3 ;     C8-    C7-    C6-   H12
   616    615    614    631      9     0.00   0.54392   3 ;     C8-    C7-    C6-   H13
   616    617    618    638      9     0.00   0.54392   3 ;     C8-    C9-   C10-   H20
   616    617    618    639      9     0.00   0.54392   3 ;     C8-    C9-   C10-   H21
   616    617    618    640      9     0.00   0.54392   3 ;     C8-    C9-   C10-   H22
   617    616    615    632      9     0.00   0.54392   3 ;     C9-    C8-    C7-   H14
   617    616    615    633      9     0.00   0.54392   3 ;     C9-    C8-    C7-   H15
   618    617    616    634      9     0.00   0.54392   3 ;    C10-    C9-    C8-   H16
   618    617    616    635      9     0.00   0.54392   3 ;    C10-    C9-    C8-   H17
   619    609    610    622      9     0.00   0.50208   3 ;     H1-    C1-    C2-    H4
   619    609    610    623      9     0.00   0.50208   3 ;     H1-    C1-    C2-    H5
   620    609    610    622      9     0.00   0.50208   3 ;     H2-    C1-    C2-    H4
   620    609    610    623      9     0.00   0.50208   3 ;     H2-    C1-    C2-    H5
   621    609    610    622      9     0.00   0.50208   3 ;     H3-    C1-    C2-    H4
   621    609    610    623      9     0.00   0.50208   3 ;     H3-    C1-    C2-    H5
   622    610    611    624      9     0.00   0.50208   3 ;     H4-    C2-    C3-    H6
   622    610    611    625      9     0.00   0.50208   3 ;     H4-    C2-    C3-    H7
   623    610    611    624      9     0.00   0.50208   3 ;     H5-    C2-    C3-    H6
   623    610    611    625      9     0.00   0.50208   3 ;     H5-    C2-    C3-    H7
   624    611    612    626      9     0.00   0.50208   3 ;     H6-    C3-    C4-    H8
   624    611    612    627      9     0.00   0.50208   3 ;     H6-    C3-    C4-    H9
   625    611    612    626      9     0.00   0.50208   3 ;     H7-    C3-    C4-    H8
   625    611    612    627      9     0.00   0.50208   3 ;     H7-    C3-    C4-    H9
   626    612    613    628      9     0.00   0.50208   3 ;     H8-    C4-    C5-   H10
   626    612    613    629      9     0.00   0.50208   3 ;     H8-    C4-    C5-   H11
   627    612    613    628      9     0.00   0.50208   3 ;     H9-    C4-    C5-   H10
   627    612    613    629      9     0.00   0.50208   3 ;     H9-    C4-    C5-   H11
   628    613    614    630      9     0.00   0.50208   3 ;    H10-    C5-    C6-   H12
   628    613    614    631      9     0.00   0.50208   3 ;    H10-    C5-    C6-   H13
   629    613    614    630      9     0.00   0.50208   3 ;    H11-    C5-    C6-   H12
   629    613    614    631      9     0.00   0.50208   3 ;    H11-    C5-    C6-   H13
   630    614    615    632      9     0.00   0.50208   3 ;    H12-    C6-    C7-   H14
   630    614    615    633      9     0.00   0.50208   3 ;    H12-    C6-    C7-   H15
   631    614    615    632      9     0.00   0.50208   3 ;    H13-    C6-    C7-   H14
   631    614    615    633      9     0.00   0.50208   3 ;    H13-    C6-    C7-   H15
   632    615    616    634      9     0.00   0.50208   3 ;    H14-    C7-    C8-   H16
   632    615    616    635      9     0.00   0.50208   3 ;    H14-    C7-    C8-   H17
   633    615    616    634      9     0.00   0.50208   3 ;    H15-    C7-    C8-   H16
   633    615    616    635      9     0.00   0.50208   3 ;    H15-    C7-    C8-   H17
   634    616    617    636      9     0.00   0.50208   3 ;    H16-    C8-    C9-   H18
   634    616    617    637      9     0.00   0.50208   3 ;    H16-    C8-    C9-   H19
   635    616    617    636      9     0.00   0.50208   3 ;    H17-    C8-    C9-   H18
   635    616    617    637      9     0.00   0.50208   3 ;    H17-    C8-    C9-   H19
   636    617    618    638      9     0.00   0.50208   3 ;    H18-    C9-   C10-   H20
   636    617    618    639      9     0.00   0.50208   3 ;    H18-    C9-   C10-   H21
   636    617    618    640      9     0.00   0.50208   3 ;    H18-    C9-   C10-   H22
   637    617    618    638      9     0.00   0.50208   3 ;    H19-    C9-   C10-   H20
   637    617    618    639      9     0.00   0.50208   3 ;    H19-    C9-   C10-   H21
   637    617    618    640      9     0.00   0.50208   3 ;    H19-    C9-   C10-   H22

[ system ]
 system

[ molecules ]
; Compound        nmols
 system           1     
