system
 1140
    1UNL     S1    1   0.031   1.667   2.192 -0.2350  0.1156 -0.0838
    1UNL     C1    2   0.181   1.629   2.110 -0.2574  0.8007 -0.1022
    1UNL     C2    3   0.296   1.713   2.116  0.3225 -0.1706  0.2665
    1UNL     C3    4   0.411   1.675   2.042  0.0035  0.1105  0.0111
    1UNL     C4    5   0.420   1.557   1.971 -0.6197 -0.0202 -0.7935
    1UNL     S2    6   0.562   1.504   1.873  0.1231  0.2504  0.1136
    1UNL     C5    7   0.597   1.654   1.778 -0.1710 -0.3588  0.1911
    1UNL     C6    8   0.726   1.711   1.782 -0.1835  0.8611 -0.2298
    1UNL     C7    9   0.756   1.831   1.711 -0.8115 -0.0166  0.0507
    1UNL     C8   10   0.648   1.908   1.655  0.5576  0.6473  0.4650
    1UNL     S3   11   0.688   2.052   1.561  0.5930 -0.0152 -0.1646
    1UNL     C9   12   0.655   2.178   1.692 -0.6887 -0.0323 -0.4137
    1UNL    C10   13   0.693   2.308   1.672  0.0529  0.4577 -0.2370
    1UNL    C11   14   0.654   2.420   1.757 -0.1812 -0.4391 -0.2527
    1UNL    C12   15   0.563   2.395   1.867 -0.3871  0.3638  0.9750
    1UNL     S4   16   0.499   2.533   1.967  0.2084  0.0529  0.1713
    1UNL    C13   17   0.326   2.475   1.969  0.1151  0.0829  0.1556
    1UNL    C14   18   0.254   2.456   1.853 -0.4889 -0.0720 -0.5332
    1UNL    C15   19   0.127   2.406   1.853 -0.1403  0.0304 -0.1343
    1UNL    C16   20   0.067   2.370   1.982 -0.2498 -0.4104  0.3684
    1UNL     S5   21  -0.102   2.315   1.999 -0.1704 -0.0164  0.0393
    1UNL    C17   22  -0.171   2.352   1.839  0.2147  0.0823 -0.3565
    1UNL    C18   23  -0.184   2.487   1.791 -0.0094 -0.4431 -0.0325
    1UNL    C19   24  -0.255   2.505   1.675  0.0793  0.1299 -0.2487
    1UNL    C20   25  -0.308   2.400   1.599 -0.1397  0.8424  0.2511
    1UNL    C21   26  -0.289   2.266   1.638  0.0687 -0.0787 -0.5635
    1UNL    C22   27  -0.214   2.244   1.753  0.3141  0.2688 -0.3486
    1UNL    C23   28   0.139   2.409   2.093 -0.0911 -0.9528 -0.4693
    1UNL    C24   29   0.270   2.453   2.092 -0.2270  0.6939 -0.3779
    1UNL    C25   30   0.533   2.258   1.893 -0.0691 -0.2173 -0.0973
    1UNL    C26   31   0.567   2.152   1.801 -0.0481  0.6133 -0.1578
    1UNL    C27   32   0.518   1.846   1.643 -0.6079 -0.3483  0.9343
    1UNL    C28   33   0.500   1.720   1.702 -0.1697 -0.8478 -0.7212
    1UNL    C29   34   0.315   1.467   1.974 -0.0803 -0.7538  0.0755
    1UNL    C30   35   0.191   1.509   2.027 -0.0618 -0.7795 -0.0529
    1UNL     H1   36   0.073   1.750   2.294 -2.1627  1.2464 -1.4686
    1UNL     H2   37   0.282   1.801   2.163 -0.3979 -1.4230 -3.5610
    1UNL     H3   38   0.498   1.738   2.045 -2.8911 -0.4713 -1.1847
    1UNL     H4   39   0.814   1.654   1.820  0.7631  0.4885 -0.4215
    1UNL     H5   40   0.855   1.878   1.697  0.8410 -0.3770  1.6006
    1UNL     H6   41   0.750   2.327   1.586  0.0623  0.3544  2.2019
    1UNL     H7   42   0.684   2.524   1.739 -0.6074  0.1155 -1.8326
    1UNL     H8   43   0.303   2.475   1.757 -1.0699 -0.1282 -1.7205
    1UNL     H9   44   0.072   2.385   1.764 -2.0040  3.0682 -0.8081
    1UNL    H10   45  -0.155   2.566   1.858 -1.1591 -1.3037  0.0769
    1UNL    H11   46  -0.260   2.604   1.624  3.7759  3.0042  0.4599
    1UNL    H12   47  -0.359   2.414   1.502  0.6387  1.3370 -0.0863
    1UNL    H13   48  -0.338   2.187   1.578  0.3684 -1.6590 -0.8338
    1UNL    H14   49  -0.192   2.137   1.783 -0.0091 -1.1468  1.4490
    1UNL    H15   50   0.104   2.405   2.193  2.3656  1.6972 -0.3862
    1UNL    H16   51   0.321   2.469   2.183  2.2664 -2.5881  0.4022
    1UNL    H17   52   0.477   2.240   1.978  0.3072  0.5810 -3.0619
    1UNL    H18   53   0.540   2.051   1.827  0.4150  0.7470  4.8406
    1UNL    H19   54   0.452   1.883   1.571 -0.3296 -0.7930 -1.8735
    1UNL    H20   55   0.406   1.680   1.677  0.8102  0.3325  1.0884
    1UNL    H21   56   0.308   1.377   1.912  1.3531  0.5756  2.4850
    1UNL    H22   57   0.100   1.450   2.014 -3.7530 -1.7584  2.3892
    2UNL     S1   58   0.212   0.761   1.640  0.0002  0.4667  0.6518
    2UNL     C1   59   0.062   0.684   1.595 -0.0368 -0.0216  0.0783
    2UNL     C2   60   0.004   0.582   1.671  0.2510  0.3293 -0.7182
    2UNL     C3   61  -0.128   0.527   1.640 -0.1606  0.2590  0.0579
    2UNL     C4   62  -0.193   0.575   1.525 -0.7370 -0.8996  0.3636
    2UNL     S2   63  -0.365   0.523   1.475 -0.3170 -0.2006  0.2660
    2UNL     C5   64  -0.334   0.350   1.406 -0.0110  0.0878  0.0969
    2UNL     C6   65  -0.451   0.268   1.383 -0.3707  0.2502  0.1107
    2UNL     C7   66  -0.434   0.143   1.324  0.4719 -0.4291 -0.0967
    2UNL     C8   67  -0.304   0.097   1.296 -0.4486 -0.2002  0.3480
    2UNL     S3   68  -0.295  -0.055   1.209  0.2468 -0.0054 -0.1108
    2UNL     C9   69  -0.149  -0.046   1.117  0.5471  0.1183  0.1094
    2UNL    C10   70  -0.076  -0.165   1.085  0.6532  0.2290 -0.1838
    2UNL    C11   71   0.039  -0.167   1.009  0.3489 -0.7183  0.1231
    2UNL    C12   72   0.081  -0.048   0.948  0.3320  0.0532 -0.2174
    2UNL     S4   73   0.231  -0.054   0.854 -0.2177  0.3113  0.2225
    2UNL    C13   74   0.326   0.072   0.936 -0.0313  0.2483 -0.3595
    2UNL    C14   75   0.446   0.111   0.876 -0.0895 -0.3336 -0.2420
    2UNL    C15   76   0.521   0.220   0.928 -0.0510 -0.2161 -0.1356
    2UNL    C16   77   0.484   0.281   1.052  0.4578 -0.3326  0.8149
    2UNL     S5   78   0.575   0.411   1.116 -0.1405  0.2389  0.0134
    2UNL    C17   79   0.562   0.536   0.991  0.1333  0.8869 -0.8223
    2UNL    C18   80   0.672   0.586   0.921 -0.2120 -0.5153  1.3665
    2UNL    C19   81   0.651   0.686   0.822  0.2933 -0.0166  0.0834
    2UNL    C20   82   0.521   0.738   0.798 -0.8024 -0.8180  0.2636
    2UNL    C21   83   0.415   0.691   0.871  0.5913 -0.3818 -0.5272
    2UNL    C22   84   0.434   0.588   0.968 -0.4531 -0.6248  0.8166
    2UNL    C23   85   0.368   0.236   1.122 -0.2999 -0.1017  0.7238
    2UNL    C24   86   0.292   0.132   1.067 -0.3943  0.3985  0.6901
    2UNL    C25   87   0.012   0.071   0.978 -0.9000 -0.0172 -0.2851
    2UNL    C26   88  -0.101   0.079   1.061 -0.4566  0.8260  0.4924
    2UNL    C27   89  -0.190   0.176   1.332 -0.5630  0.6485  0.8958
    2UNL    C28   90  -0.208   0.297   1.392  0.2319 -0.6975 -0.3424
    2UNL    C29   91  -0.141   0.688   1.454 -0.4785  0.0904  0.2564
    2UNL    C30   92  -0.019   0.746   1.497  0.6798  0.8860  0.7341
    2UNL     H1   93   0.164   0.858   1.720 -0.7345 -1.6800  0.7686
    2UNL     H2   94   0.065   0.537   1.749  0.8786  1.8747 -0.8487
    2UNL     H3   95  -0.180   0.439   1.686 -0.1156 -2.4636  2.3663
    2UNL     H4   96  -0.548   0.307   1.421 -1.7655  0.6829  0.7944
    2UNL     H5   97  -0.519   0.075   1.320  0.2686  1.3285  2.6002
    2UNL     H6   98  -0.115  -0.261   1.123 -3.4072  0.4714 -0.5157
    2UNL     H7   99   0.091  -0.259   0.991  1.5231  1.8613  1.8376
    2UNL     H8  100   0.476   0.076   0.780 -1.8828  1.7187 -0.2991
    2UNL     H9  101   0.594   0.272   0.869  0.3815  0.6914  2.3542
    2UNL    H10  102   0.776   0.553   0.937 -0.8639  0.2685 -0.0373
    2UNL    H11  103   0.741   0.726   0.774  0.2083 -2.2122 -0.0299
    2UNL    H12  104   0.513   0.820   0.726 -1.3520  2.7636  0.0541
    2UNL    H13  105   0.314   0.721   0.840 -0.4315  2.2512 -0.3649
    2UNL    H14  106   0.353   0.543   1.019  2.3794 -0.6803 -0.4918
    2UNL    H15  107   0.346   0.279   1.218 -0.8884  1.4936  0.1804
    2UNL    H16  108   0.211   0.094   1.130 -1.2740  2.1012  0.8714
    2UNL    H17  109   0.048   0.152   0.916  0.9588 -1.2410  0.9000
    2UNL    H18  110  -0.151   0.173   1.070 -0.1278  0.3551 -0.4955
    2UNL    H19  111  -0.086   0.130   1.319  2.3105 -1.9625 -1.5661
    2UNL    H20  112  -0.122   0.358   1.414 -0.7675  3.0948 -0.5845
    2UNL    H21  113  -0.201   0.740   1.379 -0.0088 -0.6096 -0.8352
    2UNL    H22  114   0.013   0.832   1.444 -0.0741 -0.0570 -1.1863
    3UNL     S1  115   1.144   0.789   1.133  0.1975 -0.1753 -0.0496
    3UNL     C1  116   1.023   0.869   1.048  0.2550 -0.1434 -0.0265
    3UNL     C2  117   0.918   0.933   1.112  0.8155 -0.5650  0.2708
    3UNL     C3  118   0.817   0.991   1.035  0.0260  0.2212 -0.1484
    3UNL     C4  119   0.811   0.970   0.895  0.2422 -0.2836 -0.1605
    3UNL     S2  120   0.664   1.030   0.813  0.0277  0.3016  0.0147
    3UNL     C5  121   0.670   1.208   0.854 -0.0264  0.3547  0.3040
    3UNL     C6  122   0.585   1.272   0.944 -0.2139  0.2243 -0.6323
    3UNL     C7  123   0.584   1.413   0.954 -0.4474  0.6241 -1.0198
    3UNL     C8  124   0.661   1.489   0.866  0.0944 -0.4414  0.4540
    3UNL     S3  125   0.646   1.668   0.859  0.1539  0.2247 -0.7775
    3UNL     C9  126   0.621   1.686   0.687 -0.4761 -0.6528 -0.0706
    3UNL    C10  127   0.683   1.787   0.612  0.1149 -0.1154 -0.0151
    3UNL    C11  128   0.688   1.783   0.475  0.5101 -0.2949  1.0584
    3UNL    C12  129   0.614   1.680   0.409  0.0751 -0.0840 -0.0355
    3UNL     S4  130   0.621   1.671   0.231  0.5025 -0.0391  0.2922
    3UNL    C13  131   0.549   1.837   0.191  0.6114  0.2652 -0.0008
    3UNL    C14  132   0.436   1.890   0.259 -0.1993  0.0793  0.0629
    3UNL    C15  133   0.393   2.021   0.221 -0.2875 -0.5063  0.5848
    3UNL    C16  134   0.446   2.097   0.117  0.4869  0.1953 -0.0630
    3UNL     S5  135   0.376   2.260   0.083 -0.0811  0.2151  0.1113
    3UNL    C17  136   0.512   2.333  -0.010  0.3048 -0.1735  0.2284
    3UNL    C18  137   0.572   2.453   0.044  0.7936  0.0362  0.6376
    3UNL    C19  138   0.640   2.537  -0.043 -0.3079  0.1301  1.0917
    3UNL    C20  139   0.671   2.490  -0.175  0.1688  0.0011  0.4597
    3UNL    C21  140   0.608   2.375  -0.227 -0.6077  0.4802  0.5918
    3UNL    C22  141   0.525   2.298  -0.147  0.4298  0.0561  0.2543
    3UNL    C23  142   0.546   2.039   0.044  0.0353 -0.8038 -0.4021
    3UNL    C24  143   0.602   1.914   0.087  0.0671 -0.3677 -0.2239
    3UNL    C25  144   0.546   1.580   0.480  0.2116 -0.7846 -0.2646
    3UNL    C26  145   0.545   1.588   0.624  0.2228  0.4831  0.2605
    3UNL    C27  146   0.764   1.422   0.796  0.8591  0.7935  0.3069
    3UNL    C28  147   0.767   1.281   0.795 -0.7031 -0.0560  0.5607
    3UNL    C29  148   0.919   0.906   0.833 -0.3363 -0.8760 -0.3830
    3UNL    C30  149   1.023   0.854   0.913 -0.1479 -0.4051  0.2139
    3UNL     H1  150   1.132   0.675   1.071  2.5657  0.1490 -0.0354
    3UNL     H2  151   0.908   0.936   1.215 -1.8812 -2.4868 -3.3800
    3UNL     H3  152   0.735   1.034   1.087  0.2260  0.2498 -1.2804
    3UNL     H4  153   0.509   1.217   1.004 -0.0104  3.1326 -1.1907
    3UNL     H5  154   0.519   1.469   1.022  1.2110 -3.1993  0.4634
    3UNL     H6  155   0.730   1.877   0.659  1.6268  0.2872  0.0615
    3UNL     H7  156   0.739   1.856   0.413  1.3391  1.6782  2.1599
    3UNL     H8  157   0.379   1.822   0.322  1.2580 -0.1987  1.9489
    3UNL     H9  158   0.313   2.063   0.281  1.2318 -0.9042  3.4417
    3UNL    H10  159   0.551   2.468   0.144  0.2865 -2.6756 -1.5574
    3UNL    H11  160   0.684   2.628  -0.003  1.6927 -1.7690 -0.9093
    3UNL    H12  161   0.741   2.537  -0.248  1.1969 -1.9044  1.6387
    3UNL    H13  162   0.613   2.352  -0.339 -0.8108 -1.2336 -1.4962
    3UNL    H14  163   0.476   2.218  -0.192  3.0026  0.0840  0.8593
    3UNL    H15  164   0.598   2.076  -0.040  1.0867  2.1117  1.4528
    3UNL    H16  165   0.679   1.875   0.029 -1.3907 -0.8548  0.2111
    3UNL    H17  166   0.486   1.509   0.427 -1.0029 -0.0424 -0.6946
    3UNL    H18  167   0.507   1.505   0.676  2.1921 -0.2895 -1.1000
    3UNL    H19  168   0.836   1.478   0.744 -1.1829  0.0922  0.1580
    3UNL    H20  169   0.843   1.227   0.740  0.2812 -0.7594  2.3464
    3UNL    H21  170   0.934   0.886   0.728  1.4184 -2.0494  2.2962
    3UNL    H22  171   1.106   0.798   0.871 -0.4928  0.8624  0.7996
    4UNL     S1  172   0.008   0.987   2.218 -0.2382  0.1034 -0.0728
    4UNL     C1  173  -0.047   1.139   2.299 -0.6295  0.3338  0.2125
    4UNL     C2  174  -0.185   1.147   2.309  0.2357 -0.9078 -0.8509
    4UNL     C3  175  -0.240   1.259   2.375  0.3115  0.0435 -0.1120
    4UNL     C4  176  -0.160   1.368   2.413 -0.0815  0.6625 -0.3283
    4UNL     S2  177  -0.226   1.521   2.472 -0.1883  0.0624  0.3122
    4UNL     C5  178  -0.371   1.528   2.379  0.4921 -0.0887 -0.4266
    4UNL     C6  179  -0.367   1.514   2.238 -0.0931  0.8430 -0.2644
    4UNL     C7  180  -0.485   1.533   2.165 -0.6391  0.0848  0.0602
    4UNL     C8  181  -0.609   1.543   2.229  0.3186  0.1649  0.5928
    4UNL     S3  182  -0.760   1.531   2.127  0.0344 -0.3762  0.2891
    4UNL     C9  183  -0.794   1.700   2.094  0.6182 -0.2381 -0.4636
    4UNL    C10  184  -0.927   1.724   2.044  0.3849 -0.1713  0.7377
    4UNL    C11  185  -0.965   1.852   2.006  0.5841 -0.3604  0.1752
    4UNL    C12  186  -0.883   1.963   2.029  0.0093  1.1134 -0.6141
    4UNL     S4  187  -0.937   2.128   1.975  0.2068 -0.2619 -0.3797
    4UNL    C13  188  -0.924   2.210   2.129  0.2102 -0.1151  0.2654
    4UNL    C14  189  -1.037   2.217   2.214 -0.0102  0.2141  0.7730
    4UNL    C15  190  -1.033   2.299   2.337 -0.2080 -0.9618  0.0640
    4UNL    C16  191  -0.912   2.365   2.370 -0.7068  0.4929  0.2134
    4UNL     S5  192  -0.898   2.458   2.522 -0.1832  0.3313 -0.1954
    4UNL    C17  193  -0.945   2.631   2.469  0.0700  0.7433  0.0149
    4UNL    C18  194  -0.987   2.728   2.565 -0.1698  0.2904  0.1219
    4UNL    C19  195  -1.015   2.860   2.515 -0.1845 -0.1982 -0.2956
    4UNL    C20  196  -1.018   2.888   2.381  0.5055  0.8439 -0.5434
    4UNL    C21  197  -0.990   2.789   2.282  0.2568 -0.9171 -0.0668
    4UNL    C22  198  -0.950   2.663   2.329 -0.2295  0.2394 -0.4949
    4UNL    C23  199  -0.802   2.352   2.284  0.3539  0.4096  0.0384
    4UNL    C24  200  -0.805   2.271   2.168  0.3292  0.6314  0.6585
    4UNL    C25  201  -0.753   1.937   2.078 -0.6095 -0.6556  0.3104
    4UNL    C26  202  -0.714   1.807   2.120 -0.0708 -0.1536 -0.1668
    4UNL    C27  203  -0.615   1.540   2.368  0.3104  0.0157  0.8452
    4UNL    C28  204  -0.497   1.536   2.444  0.6563 -0.3272  1.0818
    4UNL    C29  205  -0.021   1.348   2.406  0.2649  0.0300  0.7960
    4UNL    C30  206   0.035   1.237   2.354 -0.7034 -0.3675 -0.3028
    4UNL     H1  207  -0.092   0.998   2.127 -1.1415  1.3191  1.3881
    4UNL     H2  208  -0.249   1.065   2.276 -0.2216  1.5845  0.8145
    4UNL     H3  209  -0.350   1.260   2.387 -1.8883 -0.9111 -1.3390
    4UNL     H4  210  -0.269   1.499   2.197  1.7043 -0.6666  5.0399
    4UNL     H5  211  -0.480   1.535   2.061  2.0626  0.4908  1.8115
    4UNL     H6  212  -0.997   1.641   2.033  3.1713 -1.0691  0.9536
    4UNL     H7  213  -1.062   1.867   1.955  1.6049  2.4568  0.9908
    4UNL     H8  214  -1.126   2.156   2.182  0.4611  0.7320 -1.4160
    4UNL     H9  215  -1.115   2.307   2.399  3.0709 -2.7564 -0.0899
    4UNL    H10  216  -0.995   2.720   2.676  0.0252  0.5917 -0.3333
    4UNL    H11  217  -1.040   2.937   2.588  1.9902  1.1063  1.1616
    4UNL    H12  218  -1.050   2.990   2.357 -0.6797 -1.1352  0.1484
    4UNL    H13  219  -0.994   2.800   2.176  1.9830 -0.1391  0.4014
    4UNL    H14  220  -0.929   2.587   2.255  2.9328 -0.9296 -1.6324
    4UNL    H15  221  -0.707   2.399   2.304  3.5871  2.1419 -1.0026
    4UNL    H16  222  -0.718   2.270   2.107  1.7705 -2.9527 -1.6335
    4UNL    H17  223  -0.684   2.014   2.098 -4.0748  1.9164 -1.7859
    4UNL    H18  224  -0.607   1.792   2.145  0.1611  0.4921  0.8788
    4UNL    H19  225  -0.713   1.536   2.413  0.0541  2.3972 -0.9077
    4UNL    H20  226  -0.494   1.546   2.551  0.9122 -0.6067 -3.0797
    4UNL    H21  227   0.042   1.421   2.443  0.9486  0.3878 -1.2347
    4UNL    H22  228   0.144   1.228   2.341  0.8156  1.4096 -3.1293
    5UNL     S1  229   1.681   0.227   1.207  0.0495 -0.2332  0.0201
    5UNL     C1  230   1.563   0.215   1.078  0.3241 -0.7161 -0.6075
    5UNL     C2  231   1.429   0.167   1.093 -0.4354  0.3213 -0.5211
    5UNL     C3  232   1.349   0.140   0.983 -0.8076  0.0029  0.7796
    5UNL     C4  233   1.386   0.173   0.850 -0.6867  0.1043 -0.0816
    5UNL     S2  234   1.267   0.145   0.716 -0.0561 -0.0524 -0.0777
    5UNL     C5  235   1.373   0.051   0.614 -0.3638  0.0820  0.2676
    5UNL     C6  236   1.381   0.080   0.475  0.0450  0.0848  0.7651
    5UNL     C7  237   1.451  -0.006   0.386  0.1040 -0.4451 -0.2060
    5UNL     C8  238   1.533  -0.108   0.445 -0.3287  0.9024  0.5285
    5UNL     S3  239   1.640  -0.218   0.350 -0.1757  0.2522 -0.2336
    5UNL     C9  240   1.519  -0.294   0.240 -0.1233 -0.3546  0.1811
    5UNL    C10  241   1.377  -0.280   0.251  0.5804  0.1047  0.2980
    5UNL    C11  242   1.293  -0.350   0.159  0.5128 -0.0958 -0.4983
    5UNL    C12  243   1.350  -0.432   0.061 -0.2481 -0.1156  0.4950
    5UNL     S4  244   1.245  -0.517  -0.070 -0.3290  0.0500 -0.5535
    5UNL    C13  245   1.301  -0.682  -0.053  0.7925  0.1971  0.7849
    5UNL    C14  246   1.344  -0.743   0.070 -0.2353  0.2298 -0.1262
    5UNL    C15  247   1.397  -0.876   0.066  0.3294 -0.6463 -1.0214
    5UNL    C16  248   1.408  -0.948  -0.053 -0.2789 -0.9675  0.9726
    5UNL     S5  249   1.455  -1.122  -0.056  0.0746 -0.1609  0.3148
    5UNL    C17  250   1.297  -1.204  -0.096 -0.3665 -0.4215  0.8678
    5UNL    C18  251   1.303  -1.321  -0.178  0.6827  0.9204  0.1350
    5UNL    C19  252   1.177  -1.382  -0.215  0.0807 -0.0445  0.1625
    5UNL    C20  253   1.051  -1.332  -0.168  0.3429 -0.1168 -0.0209
    5UNL    C21  254   1.050  -1.225  -0.076 -0.8724 -0.2212  0.5110
    5UNL    C22  255   1.175  -1.159  -0.035  0.7156  0.3061  0.1423
    5UNL    C23  256   1.360  -0.887  -0.167  0.3998  0.1042 -0.0324
    5UNL    C24  257   1.308  -0.755  -0.173 -0.2834 -0.2441  0.7906
    5UNL    C25  258   1.490  -0.441   0.048  0.3540  0.1248  0.1513
    5UNL    C26  259   1.576  -0.376   0.138 -0.0196 -0.4479  0.5848
    5UNL    C27  260   1.532  -0.127   0.586 -0.1976 -0.0113  0.0052
    5UNL    C28  261   1.450  -0.054   0.669 -0.7349  0.7271  0.3024
    5UNL    C29  262   1.517   0.229   0.831 -0.1804  0.0711 -0.2931
    5UNL    C30  263   1.596   0.247   0.945 -0.2523  0.0428  0.1612
    5UNL     H1  264   1.641   0.118   1.267 -0.1266  4.0245 -0.8309
    5UNL     H2  265   1.397   0.128   1.190 -0.1007 -2.8672 -1.3478
    5UNL     H3  266   1.257   0.101   1.006  0.1500  0.3790 -1.8835
    5UNL     H4  267   1.330   0.166   0.437 -0.4616 -1.3287  0.1073
    5UNL     H5  268   1.454   0.016   0.280 -1.3776 -1.1682 -1.8141
    5UNL     H6  269   1.334  -0.224   0.333  3.2296 -2.5085 -0.2909
    5UNL     H7  270   1.187  -0.345   0.174  0.1038 -0.5671 -0.6577
    5UNL     H8  271   1.350  -0.687   0.165  1.9023  0.3061 -1.1198
    5UNL     H9  272   1.416  -0.929   0.159 -2.8322  0.7507  0.0822
    5UNL    H10  273   1.394  -1.360  -0.211 -0.5538 -1.3444  1.0965
    5UNL    H11  274   1.178  -1.474  -0.273 -1.1012 -1.5566 -0.3757
    5UNL    H12  275   0.951  -1.374  -0.185 -0.9926 -2.6532 -0.9960
    5UNL    H13  276   0.963  -1.208  -0.018  1.0419 -1.0956 -1.5538
    5UNL    H14  277   1.183  -1.099   0.054  1.3047 -0.6033  0.9058
    5UNL    H15  278   1.377  -0.943  -0.260  1.6914  0.7044  0.4998
    5UNL    H16  279   1.273  -0.720  -0.270  0.1975 -1.8110 -1.5984
    5UNL    H17  280   1.534  -0.495  -0.038  3.3980 -2.7257  0.4356
    5UNL    H18  281   1.684  -0.399   0.133 -1.5572 -0.5526 -0.3076
    5UNL    H19  282   1.599  -0.206   0.625  3.5743  0.9524  0.4074
    5UNL    H20  283   1.435  -0.073   0.778  2.1308  1.1969  2.3952
    5UNL    H21  284   1.550   0.269   0.739  0.7802 -0.9429  1.3402
    5UNL    H22  285   1.702   0.281   0.935  2.4305 -1.5675  2.0467
    6UNL     S1  286   1.001   2.286   0.671  0.1230  0.0207 -0.0578
    6UNL     C1  287   1.159   2.204   0.679 -0.4343  0.8317  0.2635
    6UNL     C2  288   1.220   2.192   0.803  0.0347  0.0669  0.3470
    6UNL     C3  289   1.348   2.137   0.814  0.1994  0.0885 -0.2822
    6UNL     C4  290   1.421   2.096   0.704 -0.4776 -0.0357  0.8644
    6UNL     S2  291   1.581   2.032   0.723 -0.0014 -0.2378  0.1326
    6UNL     C5  292   1.570   1.949   0.883 -1.1198  0.3554 -0.6609
    6UNL     C6  293   1.628   2.007   1.002  0.3691 -0.1280 -0.0277
    6UNL     C7  294   1.640   1.930   1.120 -0.4527  0.3174 -0.3409
    6UNL     C8  295   1.598   1.798   1.125 -0.5043  0.0374 -0.2341
    6UNL     S3  296   1.603   1.693   1.263  0.1913  0.5854  0.1079
    6UNL     C9  297   1.505   1.785   1.377  0.3420  0.5405  0.6494
    6UNL    C10  298   1.543   1.804   1.509 -0.1698  0.1716  0.8762
    6UNL    C11  299   1.458   1.866   1.602 -0.2944 -0.3511  0.1489
    6UNL    C12  300   1.331   1.916   1.562 -0.8370  0.7613  0.2910
    6UNL     S4  301   1.228   2.003   1.673  0.0170 -0.2031 -0.1686
    6UNL    C13  302   1.272   2.165   1.635 -0.1851 -0.6526  0.2978
    6UNL    C14  303   1.180   2.257   1.584 -0.3076  0.4150 -0.5948
    6UNL    C15  304   1.209   2.394   1.564 -0.1515  0.3192 -0.7214
    6UNL    C16  305   1.344   2.436   1.575  0.0103 -0.5610 -0.4509
    6UNL     S5  306   1.375   2.614   1.540  0.0949  0.2308 -0.0962
    6UNL    C17  307   1.509   2.642   1.661 -0.6223  0.3996 -0.5535
    6UNL    C18  308   1.482   2.610   1.792  0.4542 -1.0327 -0.8892
    6UNL    C19  309   1.580   2.615   1.892 -0.4277 -0.6251  0.5161
    6UNL    C20  310   1.711   2.666   1.862 -0.5065  0.0809  0.7710
    6UNL    C21  311   1.732   2.703   1.731 -0.4807 -0.5452 -0.0297
    6UNL    C22  312   1.635   2.698   1.627 -0.7299 -0.1339  0.0312
    6UNL    C23  313   1.442   2.343   1.618  0.0562 -0.6298  0.3011
    6UNL    C24  314   1.404   2.209   1.643 -0.4327 -0.3088 -0.0785
    6UNL    C25  315   1.286   1.877   1.431  1.1268 -0.6837 -0.0811
    6UNL    C26  316   1.370   1.810   1.348  0.2211 -0.0280  0.2846
    6UNL    C27  317   1.554   1.741   1.009  0.7141 -0.1564 -0.1619
    6UNL    C28  318   1.542   1.814   0.888  0.4159  0.9988  0.6976
    6UNL    C29  319   1.354   2.103   0.575 -0.2881 -0.7416  0.2739
    6UNL    C30  320   1.233   2.169   0.562 -0.2881  0.4719  0.0803
    6UNL     H1  321   1.050   2.414   0.650 -0.3800  0.3136  2.1661
    6UNL     H2  322   1.161   2.205   0.897 -2.1305  0.1751 -3.7008
    6UNL     H3  323   1.375   2.108   0.910 -1.3529 -2.3972 -0.6736
    6UNL     H4  324   1.661   2.107   1.001 -0.3706  0.4902  1.4794
    6UNL     H5  325   1.674   1.985   1.213 -0.1461  1.4816  1.1787
    6UNL     H6  326   1.645   1.783   1.537 -1.0293 -0.3641  0.1697
    6UNL     H7  327   1.488   1.885   1.699 -0.5029  0.6740  1.3605
    6UNL     H8  328   1.076   2.230   1.577  3.6796  1.2057 -3.3313
    6UNL     H9  329   1.137   2.477   1.539  0.3371  0.8851  0.9956
    6UNL    H10  330   1.384   2.563   1.812 -1.6666  0.1826 -0.7179
    6UNL    H11  331   1.565   2.579   1.992  0.3941 -0.1723 -1.0073
    6UNL    H12  332   1.786   2.672   1.941 -1.2269  0.4998 -1.0382
    6UNL    H13  333   1.829   2.737   1.699  0.5419 -0.7363 -2.2942
    6UNL    H14  334   1.672   2.721   1.525  1.3517 -0.5953  1.4833
    6UNL    H15  335   1.548   2.372   1.622 -0.9785  1.6821 -2.4437
    6UNL    H16  336   1.482   2.143   1.669 -1.7824  0.2435 -0.0184
    6UNL    H17  337   1.185   1.891   1.396 -1.2282 -3.0547  1.4612
    6UNL    H18  338   1.339   1.788   1.244 -1.4182  0.4745 -2.9717
    6UNL    H19  339   1.524   1.638   1.003  1.9138 -0.0367 -2.0755
    6UNL    H20  340   1.514   1.766   0.798  1.3939  2.0328  0.5796
    6UNL    H21  341   1.411   2.059   0.485 -0.6166  1.1150 -2.7234
    6UNL    H22  342   1.184   2.177   0.467 -0.2352  0.7910  1.1662
    7UNL     S1  343   0.890   1.566   0.015  0.2711  0.0199 -0.3371
    7UNL     C1  344   0.836   1.674  -0.109 -0.2855 -0.3023 -0.8347
    7UNL     C2  345   0.699   1.699  -0.135  0.6608  1.5207 -0.1004
    7UNL     C3  346   0.658   1.792  -0.227 -0.4306  0.2819 -0.2995
    7UNL     C4  347   0.750   1.872  -0.299 -0.2165  0.0615  0.2025
    7UNL     S2  348   0.685   1.992  -0.415 -0.1802 -0.1893 -0.2212
    7UNL     C5  349   0.816   2.103  -0.447 -0.2207  1.0487 -0.4207
    7UNL     C6  350   0.877   2.102  -0.573 -0.6104  0.6995  0.0585
    7UNL     C7  351   0.991   2.179  -0.594  0.2751 -0.3586  0.8928
    7UNL     C8  352   1.043   2.256  -0.496 -0.8046  0.4630 -0.0209
    7UNL     S3  353   1.182   2.359  -0.535 -0.2622  0.5808  0.4562
    7UNL     C9  354   1.116   2.512  -0.480  0.8909  0.2664  0.9656
    7UNL    C10  355   0.995   2.564  -0.538 -0.5973  0.3843 -0.2861
    7UNL    C11  356   0.947   2.688  -0.501  0.9552 -0.4061 -1.2620
    7UNL    C12  357   1.018   2.763  -0.408  0.3117  0.0567 -0.1312
    7UNL     S4  358   0.929   2.918  -0.368 -0.1022  0.0394 -0.1247
    7UNL    C13  359   0.971   2.922  -0.194  0.1401  0.6077 -0.2091
    7UNL    C14  360   1.010   3.041  -0.128  0.1400 -0.5809  0.0480
    7UNL    C15  361   1.031   3.040   0.018  0.3685  0.7927 -0.2921
    7UNL    C16  362   1.015   2.923   0.090  0.2943 -0.0953 -0.6250
    7UNL     S5  363   1.043   2.911   0.261  0.6103  0.1978  0.0740
    7UNL    C17  364   0.974   3.060   0.325 -0.1275  0.0221 -0.2220
    7UNL    C18  365   0.880   3.140   0.267 -0.2494  1.0798  0.2707
    7UNL    C19  366   0.814   3.235   0.340  0.2323 -0.1091 -0.9191
    7UNL    C20  367   0.846   3.263   0.478  0.3478 -0.8334 -0.4124
    7UNL    C21  368   0.942   3.188   0.533 -0.0241 -0.2272 -0.3491
    7UNL    C22  369   1.007   3.082   0.460 -0.3151 -0.7808  0.2444
    7UNL    C23  370   0.972   2.809   0.027 -0.3389  0.5392  0.4432
    7UNL    C24  371   0.957   2.808  -0.114 -0.2715 -0.6676  0.3726
    7UNL    C25  372   1.131   2.713  -0.346  0.1306 -0.0199  1.1119
    7UNL    C26  373   1.184   2.587  -0.382  0.0090 -0.0356 -0.4265
    7UNL    C27  374   0.985   2.262  -0.372  0.2790 -0.8269 -0.4467
    7UNL    C28  375   0.876   2.182  -0.344 -0.3628 -0.2605  0.1657
    7UNL    C29  376   0.894   1.854  -0.272  1.4277 -0.8368 -0.4688
    7UNL    C30  377   0.935   1.748  -0.183 -0.2377  0.0334 -0.4961
    7UNL     H1  378   1.015   1.551  -0.035  1.9929 -1.7114  2.2030
    7UNL     H2  379   0.629   1.626  -0.090  0.0225 -2.4889 -1.3027
    7UNL     H3  380   0.553   1.802  -0.243  0.1567 -2.2029 -3.0091
    7UNL     H4  381   0.831   2.048  -0.659  0.5412 -0.6705  1.0409
    7UNL     H5  382   1.040   2.181  -0.688 -0.2851  0.0668 -2.7758
    7UNL     H6  383   0.954   2.507  -0.622  1.2613 -1.4932 -0.1851
    7UNL     H7  384   0.851   2.725  -0.529 -0.5405  1.8157  0.6603
    7UNL     H8  385   1.014   3.134  -0.188 -1.3715  1.6479  1.1710
    7UNL     H9  386   1.078   3.127   0.065 -0.2556 -3.1329 -0.4043
    7UNL    H10  387   0.838   3.117   0.175  1.8725 -0.7294  3.1386
    7UNL    H11  388   0.726   3.281   0.291 -1.7827 -0.8960 -1.4657
    7UNL    H12  389   0.778   3.338   0.528 -0.6228  1.9642 -3.9106
    7UNL    H13  390   0.977   3.199   0.636  2.0546 -2.1545 -0.1546
    7UNL    H14  391   1.079   3.021   0.510 -0.6593  3.9113  1.5715
    7UNL    H15  392   0.962   2.720   0.088  1.1809  0.2994  0.4757
    7UNL    H16  393   0.905   2.718  -0.159  0.6166  0.4147 -1.6982
    7UNL    H17  394   1.179   2.774  -0.270  0.0967 -0.1886 -1.2055
    7UNL    H18  395   1.281   2.562  -0.336  1.7170  5.0635 -0.5504
    7UNL    H19  396   1.026   2.324  -0.296 -1.2496 -0.2551 -0.0923
    7UNL    H20  397   0.832   2.182  -0.236 -0.8177  1.5503 -0.3697
    7UNL    H21  398   0.966   1.917  -0.318  0.6735 -1.3201 -3.0160
    7UNL    H22  399   1.039   1.737  -0.156  0.7936  3.4140  1.3708
    8UNL     S1  400   2.413   1.060   0.160  0.0236  0.2882 -0.1564
    8UNL     C1  401   2.474   1.206   0.237 -0.6251  0.1374  0.0240
    8UNL     C2  402   2.383   1.308   0.275 -0.8336  0.6379 -0.1153
    8UNL     C3  403   2.421   1.415   0.359  0.5141 -0.2001  0.1352
    8UNL     C4  404   2.554   1.428   0.394 -0.9136  0.1607 -0.7779
    8UNL     S2  405   2.612   1.564   0.491 -0.0401 -0.0239  0.1174
    8UNL     C5  406   2.632   1.496   0.654  0.5375  0.0528  0.1264
    8UNL     C6  407   2.585   1.369   0.693 -0.3473  0.4819  0.3239
    8UNL     C7  408   2.592   1.334   0.833  1.0503  0.2897 -0.1766
    8UNL     C8  409   2.654   1.414   0.929 -0.5117  0.0849 -0.2757
    8UNL     S3  410   2.677   1.377   1.099 -0.3862 -0.1575 -0.3014
    8UNL     C9  411   2.526   1.310   1.159  0.2349  0.2936  0.3306
    8UNL    C10  412   2.542   1.207   1.253  0.0364  0.2724 -0.3173
    8UNL    C11  413   2.426   1.134   1.299 -0.1135 -0.0204  0.8406
    8UNL    C12  414   2.300   1.169   1.242  0.6786 -0.8172  0.3580
    8UNL     S4  415   2.146   1.105   1.289 -0.0037 -0.0042 -0.2468
    8UNL    C13  416   2.084   1.216   1.413  0.3057 -0.2454 -0.0905
    8UNL    C14  417   2.036   1.165   1.534 -0.6977 -0.1302  0.1681
    8UNL    C15  418   1.978   1.247   1.630  0.2051 -0.0335 -0.5843
    8UNL    C16  419   1.959   1.380   1.594 -0.1646 -0.6022 -0.3946
    8UNL     S5  420   1.877   1.490   1.712 -0.1486 -0.3106  0.3711
    8UNL    C17  421   2.016   1.563   1.792 -0.2269  0.0972  0.8543
    8UNL    C18  422   1.989   1.688   1.855  0.1727  0.2012  0.0067
    8UNL    C19  423   2.090   1.770   1.893 -0.2823  0.2792 -0.1606
    8UNL    C20  424   2.220   1.716   1.914  0.5077  0.4190 -0.6875
    8UNL    C21  425   2.243   1.581   1.876 -0.0943  0.7139  0.2476
    8UNL    C22  426   2.143   1.504   1.811  0.1709  0.8927 -0.3557
    8UNL    C23  427   1.999   1.433   1.473  0.3561 -0.1386  0.7033
    8UNL    C24  428   2.074   1.356   1.383  0.5292 -0.6815 -0.3231
    8UNL    C25  429   2.292   1.266   1.144  0.1869  0.2418 -0.0597
    8UNL    C26  430   2.404   1.343   1.097 -0.0722 -0.4538 -0.4292
    8UNL    C27  431   2.711   1.533   0.882  0.2707  0.7112  0.4899
    8UNL    C28  432   2.690   1.573   0.752 -0.4448 -0.4366  0.7751
    8UNL    C29  433   2.644   1.323   0.357 -0.4310 -0.5376  0.1235
    8UNL    C30  434   2.612   1.218   0.270 -0.4646  0.3650  0.3869
    8UNL     H1  435   2.400   1.125   0.043 -0.7931  1.6418  1.7554
    8UNL     H2  436   2.279   1.298   0.246  0.7893  0.2550 -0.6155
    8UNL     H3  437   2.348   1.490   0.385  0.4548  0.5030 -0.4397
    8UNL     H4  438   2.524   1.320   0.621 -3.7118  0.1156  0.4233
    8UNL     H5  439   2.534   1.249   0.871 -0.8448 -0.0294 -0.3533
    8UNL     H6  440   2.632   1.181   1.307  0.4003 -2.2287 -2.0679
    8UNL     H7  441   2.438   1.050   1.368  3.5214 -1.4243  0.3783
    8UNL     H8  442   2.051   1.062   1.558  0.8329  0.1716 -2.3735
    8UNL     H9  443   1.940   1.203   1.717 -1.1972 -0.2873  0.9047
    8UNL    H10  444   1.885   1.728   1.854  0.7275  2.5741  1.1151
    8UNL    H11  445   2.071   1.875   1.926 -0.5885 -2.1513  2.6315
    8UNL    H12  446   2.298   1.775   1.960 -0.7480  1.2416  0.3076
    8UNL    H13  447   2.343   1.537   1.889  1.1497 -0.5345  0.5725
    8UNL    H14  448   2.158   1.406   1.767 -0.3712 -3.0492 -1.2575
    8UNL    H15  449   1.985   1.542   1.451  2.1916 -1.8376 -0.8886
    8UNL    H16  450   2.097   1.406   1.294 -1.1480  1.5615  1.8655
    8UNL    H17  451   2.203   1.287   1.097  0.1730 -1.8310 -1.5378
    8UNL    H18  452   2.405   1.420   1.022 -0.2307 -0.5090  0.4110
    8UNL    H19  453   2.758   1.584   0.963 -1.8620  0.4932  2.9392
    8UNL    H20  454   2.729   1.668   0.721 -2.0958  0.2040  1.0136
    8UNL    H21  455   2.745   1.333   0.377 -0.7645 -1.4307 -0.7951
    8UNL    H22  456   2.690   1.143   0.241  1.8260 -0.6078  0.3159
    9UNL     S1  457   1.497   0.711   1.340  0.2118 -0.3073 -0.1190
    9UNL     C1  458   1.667   0.720   1.288  0.1201 -0.9063  0.2695
    9UNL     C2  459   1.726   0.622   1.221  0.2034 -0.5915 -0.1963
    9UNL     C3  460   1.856   0.629   1.178 -0.4980 -0.0797 -0.4568
    9UNL     C4  461   1.933   0.748   1.197 -0.5151 -0.2644  0.0609
    9UNL     S2  462   2.101   0.748   1.133  0.2267  0.1090  0.0370
    9UNL     C5  463   2.111   0.866   0.998  0.0527 -0.7593 -0.1371
    9UNL     C6  464   2.225   0.942   0.985 -0.1011  0.5067 -0.9412
    9UNL     C7  465   2.220   1.048   0.895  0.3299 -0.0801  0.3684
    9UNL     C8  466   2.112   1.063   0.809 -0.0892  0.6970 -0.6916
    9UNL     S3  467   2.111   1.200   0.699  0.1410 -0.2517 -0.1071
    9UNL     C9  468   2.064   1.334   0.805  0.5663 -0.7799 -0.1250
    9UNL    C10  469   2.146   1.446   0.805 -0.0716 -0.8012  0.3228
    9UNL    C11  470   2.109   1.557   0.877  0.9087  0.7429  0.6758
    9UNL    C12  471   1.989   1.557   0.946 -0.3581  0.1773  0.1164
    9UNL     S4  472   1.941   1.694   1.037  0.2996 -0.0155 -0.4205
    9UNL    C13  473   1.934   1.820   0.913  0.3751 -0.0328 -0.6213
    9UNL    C14  474   1.867   1.798   0.789 -0.0433 -0.9880 -0.9097
    9UNL    C15  475   1.873   1.903   0.697  0.2312  0.5511  0.1684
    9UNL    C16  476   1.935   2.026   0.729  0.1773 -0.9695  0.1330
    9UNL     S5  477   1.931   2.161   0.615  0.1156 -0.1427 -0.3437
    9UNL    C17  478   1.971   2.308   0.710 -0.1108  0.0929 -0.3049
    9UNL    C18  479   1.870   2.365   0.793 -0.2668 -0.0153 -0.6787
    9UNL    C19  480   1.894   2.481   0.875 -0.0556 -0.0796 -0.1986
    9UNL    C20  481   2.018   2.550   0.866 -0.4066  0.2830  0.1027
    9UNL    C21  482   2.121   2.491   0.780 -0.1068 -0.4372 -0.4081
    9UNL    C22  483   2.101   2.367   0.711  0.0115  0.2998 -0.5754
    9UNL    C23  484   2.003   2.041   0.850  0.5307  0.6123  0.2547
    9UNL    C24  485   1.998   1.937   0.943  0.0194 -0.5456 -0.3487
    9UNL    C25  486   1.917   1.438   0.962  0.0156 -0.8566 -0.0638
    9UNL    C26  487   1.952   1.326   0.886  0.3429  0.2566  0.0294
    9UNL    C27  488   2.006   0.975   0.816  0.1889  0.4555  0.2847
    9UNL    C28  489   2.006   0.876   0.915 -0.3840  0.5149 -0.0962
    9UNL    C29  490   1.869   0.854   1.273  0.3570 -0.1286  1.2764
    9UNL    C30  491   1.740   0.839   1.319 -0.3150  0.3805  0.4202
    9UNL     H1  492   1.441   0.783   1.241  2.8551  0.7267 -1.5675
    9UNL     H2  493   1.665   0.534   1.209 -2.1648  0.8660 -1.2389
    9UNL     H3  494   1.902   0.546   1.126 -0.2655 -0.6720  0.6568
    9UNL     H4  495   2.318   0.928   1.042  0.3067 -0.3101  1.8529
    9UNL     H5  496   2.305   1.107   0.875 -2.8657  1.4430 -0.9402
    9UNL     H6  497   2.224   1.454   0.733 -1.0371 -0.1673 -0.1795
    9UNL     H7  498   2.167   1.648   0.882 -0.6915  0.5856  0.6869
    9UNL     H8  499   1.838   1.697   0.751  2.5920 -0.5270  0.1464
    9UNL     H9  500   1.823   1.881   0.602 -0.3686  2.1171 -0.8481
    9UNL    H10  501   1.775   2.311   0.799 -1.1550 -2.4418  2.0310
    9UNL    H11  502   1.817   2.529   0.938 -0.5308  3.7854  0.2183
    9UNL    H12  503   2.025   2.652   0.912 -0.0565  0.1039  1.0837
    9UNL    H13  504   2.219   2.541   0.777  2.3279  1.8259 -0.5077
    9UNL    H14  505   2.182   2.311   0.667 -0.6730  0.3980 -1.6449
    9UNL    H15  506   2.049   2.142   0.872 -0.6652 -0.6774  0.9660
    9UNL    H16  507   2.047   1.949   1.041 -1.1006 -0.7302 -3.1147
    9UNL    H17  508   1.834   1.430   1.027 -0.0007  2.4901 -0.1276
    9UNL    H18  509   1.889   1.236   0.908 -1.3617 -3.4191  1.1698
    9UNL    H19  510   1.919   0.973   0.752  0.8466 -0.7758  2.0524
    9UNL    H20  511   1.922   0.807   0.917 -0.3161 -0.2685 -1.9629
    9UNL    H21  512   1.923   0.943   1.295  0.0127 -3.8463 -0.2194
    9UNL    H22  513   1.693   0.920   1.386  0.5543 -1.2508 -1.2158
   10UNL     S1  514   1.789   0.521   0.754 -0.1639  0.1384 -0.2311
   10UNL     C1  515   1.766   0.420   0.609 -0.4123 -0.2432 -0.2131
   10UNL     C2  516   1.803   0.286   0.614  0.3010 -0.0723 -0.1901
   10UNL     C3  517   1.799   0.207   0.502  0.5894 -0.1154  0.3412
   10UNL     C4  518   1.749   0.256   0.379 -0.0160  0.2743 -0.4343
   10UNL     S2  519   1.749   0.137   0.236  0.5723 -0.0472 -0.2378
   10UNL     C5  520   1.926   0.120   0.216 -0.4279  0.0909  0.0373
   10UNL     C6  521   2.009   0.235   0.213  0.0057  0.6503  0.3293
   10UNL     C7  522   2.154   0.219   0.207 -0.4304 -0.6529 -0.5876
   10UNL     C8  523   2.207   0.089   0.206 -0.1039 -0.2209 -0.0065
   10UNL     S3  524   2.383   0.067   0.162 -0.1630 -0.1153  0.1219
   10UNL     C9  525   2.377   0.121  -0.010  0.0022  0.1483 -0.5967
   10UNL    C10  526   2.335   0.031  -0.118  0.0747 -0.0057 -0.1945
   10UNL    C11  527   2.341   0.084  -0.249 -0.3699  0.6773 -0.3284
   10UNL    C12  528   2.394   0.210  -0.280 -0.8527  0.7355 -0.0830
   10UNL     S4  529   2.404   0.257  -0.457 -0.1723 -0.2525  0.2899
   10UNL    C13  530   2.266   0.364  -0.477 -0.8820  0.0418  0.0606
   10UNL    C14  531   2.133   0.313  -0.473 -0.2612 -0.3680  0.2172
   10UNL    C15  532   2.032   0.399  -0.482  0.3091 -0.6622 -0.3299
   10UNL    C16  533   2.043   0.541  -0.467  0.1135  0.1036  0.2713
   10UNL     S5  534   1.901   0.651  -0.488  0.3110 -0.1185 -0.0904
   10UNL    C17  535   1.805   0.574  -0.616 -0.0277  0.0752  0.2539
   10UNL    C18  536   1.856   0.552  -0.742 -0.1093 -0.0516 -0.3608
   10UNL    C19  537   1.770   0.526  -0.852  0.2780 -0.4240 -0.3825
   10UNL    C20  538   1.630   0.514  -0.827  0.0203  0.2938 -0.5773
   10UNL    C21  539   1.577   0.537  -0.697  0.5549 -0.0718 -0.0999
   10UNL    C22  540   1.662   0.565  -0.593 -0.7063 -0.0190 -0.1658
   10UNL    C23  541   2.173   0.594  -0.471  0.4885 -0.1949 -0.5824
   10UNL    C24  542   2.285   0.505  -0.476 -0.3458 -0.3996  0.3154
   10UNL    C25  543   2.441   0.294  -0.177 -0.1550  0.2438  0.2798
   10UNL    C26  544   2.424   0.247  -0.047 -0.4069  0.3449 -0.1166
   10UNL    C27  545   2.124  -0.020   0.222  0.1430  0.1451 -0.5974
   10UNL    C28  546   1.989  -0.006   0.233 -0.1817 -0.1214 -0.7586
   10UNL    C29  547   1.709   0.385   0.368  0.0219  0.1221 -0.2138
   10UNL    C30  548   1.716   0.471   0.485  0.4511 -0.3378 -0.3235
   10UNL     H1  549   1.728   0.632   0.706 -0.0772 -0.6593  0.0105
   10UNL     H2  550   1.824   0.237   0.713 -2.2057 -0.8940 -0.1902
   10UNL     H3  551   1.837   0.107   0.493 -0.0496 -0.9523 -1.5458
   10UNL     H4  552   1.968   0.339   0.211 -0.9096  0.2717 -0.3831
   10UNL     H5  553   2.222   0.298   0.210  0.4489 -0.3551 -0.5426
   10UNL     H6  554   2.303  -0.068  -0.098 -0.0846 -1.4722 -0.5134
   10UNL     H7  555   2.304   0.026  -0.334 -0.2026  3.7508 -0.7923
   10UNL     H8  556   2.112   0.210  -0.472 -0.9221 -0.9150  0.3292
   10UNL     H9  557   1.927   0.358  -0.476 -0.5410  2.0284  2.4476
   10UNL    H10  558   1.966   0.558  -0.758  1.8478 -3.0073  0.0330
   10UNL    H11  559   1.816   0.514  -0.953 -0.0388  0.3325 -1.3339
   10UNL    H12  560   1.561   0.488  -0.903  1.5300  0.8462  3.2602
   10UNL    H13  561   1.471   0.517  -0.683 -1.4204 -0.5245 -3.9694
   10UNL    H14  562   1.634   0.582  -0.493  0.4174  1.6329  0.0233
   10UNL    H15  563   2.180   0.705  -0.465 -1.4668  0.5162  1.9788
   10UNL    H16  564   2.380   0.555  -0.458  0.2212  0.7495 -2.6362
   10UNL    H17  565   2.481   0.392  -0.189 -1.4151 -1.0885 -1.1360
   10UNL    H18  566   2.460   0.309   0.039 -2.5989 -0.0931  2.7293
   10UNL    H19  567   2.178  -0.109   0.235 -2.1937  1.1999 -0.0747
   10UNL    H20  568   1.914  -0.086   0.252 -1.8416 -0.5121  0.3521
   10UNL    H21  569   1.665   0.425   0.273 -0.2566  0.0603  1.8466
   10UNL    H22  570   1.673   0.568   0.479  1.5099 -0.7979 -0.6264
   11UNL     S1  571   0.839   0.584   1.452 -0.0926 -0.3515  0.0422
   11UNL     C1  572   0.716   0.696   1.383  0.0537 -0.2045  0.0754
   11UNL     C2  573   0.612   0.740   1.475 -0.0337 -0.2180  0.7957
   11UNL     C3  574   0.502   0.808   1.418 -0.8020 -0.3406  0.4749
   11UNL     C4  575   0.491   0.836   1.282  0.0105 -0.0038 -0.0177
   11UNL     S2  576   0.349   0.921   1.203  0.1050 -0.1692 -0.5218
   11UNL     C5  577   0.220   0.788   1.194 -0.2848 -0.1647 -0.0806
   11UNL     C6  578   0.109   0.813   1.117  0.0649  0.0547 -0.5522
   11UNL     C7  579   0.012   0.706   1.102 -0.0426  0.5684  0.7545
   11UNL     C8  580   0.034   0.584   1.170 -0.1910 -0.7148  0.3152
   11UNL     S3  581  -0.085   0.449   1.158 -0.8039 -0.1358 -0.0901
   11UNL     C9  582  -0.116   0.435   0.983 -0.8561 -0.1729 -0.4136
   11UNL    C10  583  -0.248   0.403   0.940  1.1750 -0.0166 -0.4614
   11UNL    C11  584  -0.275   0.378   0.803 -0.8386  0.3229  0.3264
   11UNL    C12  585  -0.175   0.380   0.711 -0.1165 -0.6208 -0.7741
   11UNL     S4  586  -0.209   0.344   0.539 -0.2427 -0.0564 -0.0380
   11UNL    C13  587  -0.050   0.278   0.492  0.5292  0.1156 -0.0545
   11UNL    C14  588   0.013   0.173   0.557 -0.7659  0.5137  0.5972
   11UNL    C15  589   0.139   0.120   0.507 -0.0465  0.2801 -0.1326
   11UNL    C16  590   0.202   0.187   0.397 -0.1662  0.6160 -0.1583
   11UNL     S5  591   0.348   0.105   0.321 -0.4450 -0.0319  0.4862
   11UNL    C17  592   0.397   0.223   0.194 -0.0168 -0.0835 -0.1175
   11UNL    C18  593   0.506   0.314   0.213 -0.0087  0.1474 -0.5912
   11UNL    C19  594   0.551   0.399   0.109  0.4513 -0.2904 -0.0020
   11UNL    C20  595   0.496   0.383  -0.021  0.8554 -0.0557  0.3644
   11UNL    C21  596   0.389   0.295  -0.043 -0.6646 -0.8732  0.2414
   11UNL    C22  597   0.332   0.218   0.066 -0.6195 -1.0211  0.0550
   11UNL    C23  598   0.139   0.308   0.348  0.5111 -0.4338 -0.1014
   11UNL    C24  599   0.016   0.341   0.389 -0.3517 -0.0230 -0.1684
   11UNL    C25  600  -0.046   0.428   0.750  0.1491 -0.1646 -0.8010
   11UNL    C26  601  -0.014   0.444   0.884 -0.1105 -0.1922  0.2066
   11UNL    C27  602   0.143   0.564   1.250  0.0822 -0.1335 -0.0741
   11UNL    C28  603   0.236   0.663   1.264  0.1128 -0.1916  0.0590
   11UNL    C29  604   0.592   0.796   1.196  0.8009  0.4213 -0.1383
   11UNL    C30  605   0.702   0.723   1.246  0.8650  0.0829  0.4839
   11UNL     H1  606   0.783   0.578   1.570 -0.3746  1.3780  0.3397
   11UNL     H2  607   0.612   0.728   1.583 -1.6929 -2.1985 -0.0486
   11UNL     H3  608   0.426   0.834   1.489 -0.9767  0.5620 -1.0622
   11UNL     H4  609   0.119   0.910   1.066 -3.7588  0.8738  2.0150
   11UNL     H5  610  -0.070   0.716   1.028 -1.1177  0.3983  1.0190
   11UNL     H6  611  -0.333   0.384   1.007  0.1956 -1.8256 -0.7164
   11UNL     H7  612  -0.379   0.359   0.776 -2.7267 -1.5202 -2.9059
   11UNL     H8  613  -0.025   0.120   0.644 -3.2246 -0.2104  0.0006
   11UNL     H9  614   0.184   0.028   0.543 -0.5216  0.2529  0.3914
   11UNL    H10  615   0.554   0.315   0.307  0.8244  0.1322 -1.2197
   11UNL    H11  616   0.639   0.460   0.124 -0.3815  2.0645  0.9982
   11UNL    H12  617   0.554   0.437  -0.105  0.8815  2.5480 -0.3445
   11UNL    H13  618   0.354   0.285  -0.145 -1.4002  1.7701 -0.0323
   11UNL    H14  619   0.252   0.143   0.053  0.7236 -1.3520  0.4209
   11UNL    H15  620   0.186   0.362   0.268  0.7506 -1.3082 -3.6829
   11UNL    H16  621  -0.026   0.427   0.335  0.7199  2.6865 -1.6518
   11UNL    H17  622   0.033   0.434   0.685 -0.6930  0.2044 -0.2363
   11UNL    H18  623   0.087   0.462   0.910 -0.8306  1.6585  1.4119
   11UNL    H19  624   0.146   0.469   1.299  2.1213 -0.4527  0.7590
   11UNL    H20  625   0.318   0.645   1.325  1.6183  0.6831  0.3616
   11UNL    H21  626   0.589   0.818   1.088 -1.6702  0.2178  6.1750
   11UNL    H22  627   0.780   0.679   1.177  0.3868 -1.1516  0.5094
   12UNL     S1  628   0.769   0.175   1.440 -0.2046  0.5555 -0.0030
   12UNL     C1  629   0.713   0.030   1.354 -0.6440  0.4838  0.4473
   12UNL     C2  630   0.797  -0.078   1.345  0.1281  0.2759  0.7577
   12UNL     C3  631   0.770  -0.181   1.259  0.0933 -0.3895 -0.1052
   12UNL     C4  632   0.652  -0.186   1.187 -0.5363 -0.0682 -0.8595
   12UNL     S2  633   0.623  -0.333   1.086 -0.0579  0.0855 -0.1251
   12UNL     C5  634   0.775  -0.429   1.073  0.3674  0.6110  0.7495
   12UNL     C6  635   0.865  -0.417   0.965  0.6374 -0.1542 -0.5495
   12UNL     C7  636   0.969  -0.503   0.950 -0.4696  0.7697  0.4747
   12UNL     C8  637   0.988  -0.600   1.045  0.4573  1.0724 -0.4437
   12UNL     S3  638   1.119  -0.716   1.030  0.4221 -0.3200  0.0065
   12UNL     C9  639   1.117  -0.740   0.851 -0.2552  0.3874 -0.3246
   12UNL    C10  640   1.221  -0.690   0.766 -0.1771 -0.5435 -0.2311
   12UNL    C11  641   1.219  -0.698   0.625 -0.2703 -0.7072  0.2108
   12UNL    C12  642   1.115  -0.775   0.566 -0.0187 -0.3336 -0.2258
   12UNL     S4  643   1.116  -0.802   0.387 -0.2048 -0.4019 -0.2229
   12UNL    C13  644   1.039  -0.656   0.325  1.1080  0.2938 -0.4499
   12UNL    C14  645   0.999  -0.553   0.413  0.3033 -0.0262  0.1991
   12UNL    C15  646   0.930  -0.437   0.360  0.4590  0.5470 -0.3698
   12UNL    C16  647   0.920  -0.419   0.220 -0.0219  0.8203  0.2710
   12UNL     S5  648   0.829  -0.273   0.157  0.2575  0.0017  0.0676
   12UNL    C17  649   0.957  -0.159   0.196  0.1945  0.1691  0.3328
   12UNL    C18  650   1.043  -0.124   0.083 -0.2917  0.5002 -0.5085
   12UNL    C19  651   1.142  -0.024   0.093 -0.2257 -0.3299  0.3447
   12UNL    C20  652   1.148   0.039   0.215  0.4633 -0.2158  0.9494
   12UNL    C21  653   1.079  -0.000   0.326 -0.2330 -0.4231 -0.2850
   12UNL    C22  654   0.975  -0.092   0.317  0.0679 -0.1498  0.4158
   12UNL    C23  655   0.970  -0.518   0.131  0.3015 -0.2897  0.4588
   12UNL    C24  656   1.022  -0.640   0.185  0.1804  0.5941  0.6272
   12UNL    C25  657   0.999  -0.808   0.648 -0.2926  0.6348 -0.1432
   12UNL    C26  658   1.000  -0.786   0.790 -0.0790  0.6760 -0.2329
   12UNL    C27  659   0.905  -0.609   1.156  0.4386 -0.3035  0.1671
   12UNL    C28  660   0.800  -0.518   1.173  0.5613 -0.2017  0.4923
   12UNL    C29  661   0.561  -0.087   1.201  0.3890 -0.0435  0.3422
   12UNL    C30  662   0.594   0.024   1.283  0.7670 -0.3163 -0.6443
   12UNL     H1  663   0.766   0.256   1.332 -2.2268 -1.2930 -2.7497
   12UNL     H2  664   0.899  -0.070   1.391  0.4671 -0.2832 -2.6096
   12UNL     H3  665   0.844  -0.258   1.249 -1.1209 -2.3741  1.0128
   12UNL     H4  666   0.841  -0.332   0.894 -1.9515  0.9103  0.1005
   12UNL     H5  667   1.031  -0.489   0.865  1.4836 -1.8280 -0.4246
   12UNL     H6  668   1.299  -0.641   0.809  0.6679  0.6432  1.1565
   12UNL     H7  669   1.297  -0.667   0.558  1.7826 -0.8186 -0.6084
   12UNL     H8  670   1.009  -0.549   0.525 -0.2784 -0.5188  3.0645
   12UNL     H9  671   0.887  -0.362   0.424  0.1816 -3.2543 -0.7295
   12UNL    H10  672   1.029  -0.181  -0.010 -2.5005  1.0695  1.8746
   12UNL    H11  673   1.203   0.019   0.011  0.3284  2.1955 -1.0171
   12UNL    H12  674   1.208   0.136   0.218 -0.6568 -0.0624 -1.4016
   12UNL    H13  675   1.099   0.044   0.420 -0.6044  0.9585  1.7743
   12UNL    H14  676   0.916  -0.114   0.410  0.2046 -0.5078  3.3907
   12UNL    H15  677   0.956  -0.511   0.028 -1.8929  2.2712  4.1290
   12UNL    H16  678   1.073  -0.712   0.131  0.2858 -0.2326  0.2088
   12UNL    H17  679   0.907  -0.845   0.609 -0.1542 -2.0846  1.6083
   12UNL    H18  680   0.910  -0.819   0.839 -0.3108 -0.8209 -1.5209
   12UNL    H19  681   0.915  -0.686   1.230 -0.0497  0.5324 -2.8119
   12UNL    H20  682   0.732  -0.528   1.249  1.2805  0.2047 -3.1889
   12UNL    H21  683   0.475  -0.086   1.135 -2.3201 -0.6908  1.2931
   12UNL    H22  684   0.526   0.115   1.291 -2.8205 -0.8871  0.5500
   13UNL     S1  685   0.707   1.296   2.262 -0.5746 -0.4139 -0.0447
   13UNL     C1  686   0.570   1.360   2.364  0.1563  0.6171 -0.0131
   13UNL     C2  687   0.457   1.420   2.301  0.2476 -0.3737  0.1403
   13UNL     C3  688   0.346   1.468   2.383 -0.4997 -0.6993  0.3455
   13UNL     C4  689   0.364   1.464   2.524 -0.8056  0.2222 -0.0422
   13UNL     S2  690   0.245   1.547   2.629  0.3129  0.7559  0.0486
   13UNL     C5  691   0.209   1.698   2.536  0.0558  0.4200  0.1201
   13UNL     C6  692   0.077   1.749   2.535  0.4980 -0.0680  0.1915
   13UNL     C7  693   0.058   1.873   2.467  0.3713 -0.1560 -0.3438
   13UNL     C8  694   0.170   1.948   2.414  0.4980  0.2370  0.2898
   13UNL     S3  695   0.145   2.116   2.353 -0.0806  0.0003 -0.1050
   13UNL     C9  696   0.149   2.075   2.180 -0.2945  0.2609 -0.2458
   13UNL    C10  697   0.037   2.036   2.116  0.6934 -0.2242 -0.3735
   13UNL    C11  698   0.043   1.996   1.979 -0.7244  0.1759  0.6199
   13UNL    C12  699   0.169   1.986   1.912 -0.1309 -0.0942 -0.0012
   13UNL     S4  700   0.178   1.916   1.750  0.0851  0.4936 -0.2826
   13UNL    C13  701   0.147   2.060   1.658 -0.1123  0.1571  0.1623
   13UNL    C14  702   0.032   2.062   1.579 -0.2222  0.2005 -0.4251
   13UNL    C15  703   0.027   2.162   1.483  0.1494 -0.0579 -0.3011
   13UNL    C16  704   0.123   2.266   1.479  0.4423 -0.4044  0.6357
   13UNL     S5  705   0.126   2.395   1.358  0.2518 -0.2290  0.2226
   13UNL    C17  706   0.174   2.525   1.461 -0.0640 -0.2609  0.0023
   13UNL    C18  707   0.308   2.564   1.479 -0.2154 -1.2636  0.4941
   13UNL    C19  708   0.335   2.663   1.572 -0.3181  0.6492 -0.4977
   13UNL    C20  709   0.236   2.738   1.633 -0.2370 -0.3538  0.2915
   13UNL    C21  710   0.107   2.689   1.631  0.9259 -0.0628  0.3172
   13UNL    C22  711   0.076   2.587   1.536 -0.0345  0.1266  0.0490
   13UNL    C23  712   0.227   2.262   1.565  0.0428 -0.0999  0.0318
   13UNL    C24  713   0.243   2.160   1.649 -0.4977  0.4238  0.8144
   13UNL    C25  714   0.280   2.028   1.982 -0.2289 -0.3446  0.1252
   13UNL    C26  715   0.277   2.073   2.115 -0.1309  0.5733 -0.2595
   13UNL    C27  716   0.294   1.892   2.415  0.3407  0.3592 -0.2868
   13UNL    C28  717   0.313   1.770   2.476  0.5157  0.3592  0.3741
   13UNL    C29  718   0.479   1.408   2.583  0.2668  0.1300  0.8322
   13UNL    C30  719   0.578   1.361   2.498 -0.4757  0.2255  0.0268
   13UNL     H1  720   0.719   1.399   2.178 -0.8846 -0.4904 -2.0653
   13UNL     H2  721   0.452   1.411   2.192 -2.1883 -1.9204  1.4692
   13UNL     H3  722   0.258   1.516   2.345 -0.7497  0.1810  0.0754
   13UNL     H4  723  -0.008   1.695   2.576 -1.7163  0.5843 -1.0489
   13UNL     H5  724  -0.042   1.913   2.454  0.2103  0.1358 -1.0028
   13UNL     H6  725  -0.064   2.038   2.164 -0.4563  0.7924  1.0364
   13UNL     H7  726  -0.043   1.975   1.913 -1.5214  2.6035 -0.9970
   13UNL     H8  727  -0.039   1.985   1.565  0.0708  0.9596  0.9721
   13UNL     H9  728  -0.044   2.167   1.402 -1.3023  3.1722  0.0478
   13UNL    H10  729   0.387   2.516   1.430 -2.0769  0.5908 -0.3105
   13UNL    H11  730   0.438   2.695   1.579 -2.0790 -0.4304 -0.0585
   13UNL    H12  731   0.260   2.824   1.686 -1.4351  1.4523  1.0352
   13UNL    H13  732   0.029   2.723   1.696 -1.5622  1.2165 -2.0656
   13UNL    H14  733  -0.025   2.545   1.551 -0.0686 -0.3515  2.6415
   13UNL    H15  734   0.311   2.331   1.547  3.5166  0.5726 -1.3283
   13UNL    H16  735   0.320   2.159   1.729 -1.7409 -3.4136  2.1482
   13UNL    H17  736   0.373   2.025   1.928 -1.8403  3.0371 -0.3226
   13UNL    H18  737   0.362   2.109   2.167 -3.5933  0.8111 -0.3260
   13UNL    H19  738   0.377   1.944   2.366  0.6514  1.5314  0.6694
   13UNL    H20  739   0.408   1.724   2.482  1.2549  2.0507 -0.1196
   13UNL    H21  740   0.485   1.407   2.682 -0.6525  1.4887 -1.6750
   13UNL    H22  741   0.669   1.321   2.545 -1.1900  0.1397  2.9992
   14UNL     S1  742   1.704   1.268   1.407 -0.4421 -0.1064  0.0775
   14UNL     C1  743   1.656   1.195   1.249  0.2008  0.7714  0.4413
   14UNL     C2  744   1.756   1.145   1.163  0.0614  0.5197 -0.3510
   14UNL     C3  745   1.716   1.084   1.046  0.2817 -0.4782 -0.2474
   14UNL     C4  746   1.579   1.087   1.001 -0.2692 -0.0986  0.0840
   14UNL     S2  747   1.525   0.991   0.861 -0.4191  0.3692  0.0418
   14UNL     C5  748   1.626   1.057   0.733 -0.0755 -1.1134  0.0705
   14UNL     C6  749   1.678   1.187   0.736  0.8188 -0.4543  0.4199
   14UNL     C7  750   1.758   1.237   0.632  0.6456  0.3335 -0.2015
   14UNL     C8  751   1.807   1.144   0.538 -0.0066 -0.2829 -0.0291
   14UNL     S3  752   1.902   1.192   0.406  0.0392  0.0082 -0.3056
   14UNL     C9  753   1.872   1.367   0.377  0.1488 -0.5196  0.1555
   14UNL    C10  754   1.770   1.409   0.293  0.2749 -0.2215  0.1399
   14UNL    C11  755   1.748   1.548   0.275 -0.7601 -0.3630 -0.3958
   14UNL    C12  756   1.833   1.639   0.333  0.4776  0.2048 -0.1235
   14UNL     S4  757   1.807   1.813   0.315  0.4191  0.7104 -0.1243
   14UNL    C13  758   1.885   1.822   0.155 -0.2770  0.2921 -0.5218
   14UNL    C14  759   2.022   1.799   0.144 -0.9174 -0.1256 -0.3714
   14UNL    C15  760   2.084   1.825   0.020 -1.0282 -1.0010 -1.0194
   14UNL    C16  761   2.020   1.873  -0.092  0.1453 -0.4893 -0.6800
   14UNL     S5  762   2.120   1.933  -0.230 -0.0258  0.1024  0.0217
   14UNL    C17  763   2.082   2.107  -0.223  0.3870  0.0935  0.5867
   14UNL    C18  764   2.071   2.178  -0.335  0.8833  0.3815  0.1885
   14UNL    C19  765   2.064   2.320  -0.341 -0.1240 -0.3459  0.6659
   14UNL    C20  766   2.057   2.391  -0.218  0.3677 -0.5273 -0.4900
   14UNL    C21  767   2.058   2.314  -0.098  0.1320  0.2667 -0.3481
   14UNL    C22  768   2.075   2.176  -0.099  0.7897  0.2117  0.4397
   14UNL    C23  769   1.882   1.895  -0.082  0.6244 -0.2013 -0.3087
   14UNL    C24  770   1.812   1.864   0.041  0.1226  0.1420  0.1630
   14UNL    C25  771   1.934   1.598   0.426  0.1706  0.8251  0.4582
   14UNL    C26  772   1.960   1.457   0.436  0.0077  0.0875 -1.0310
   14UNL    C27  773   1.766   1.011   0.538 -0.6290  0.9601  0.1124
   14UNL    C28  774   1.669   0.967   0.636 -0.0495  0.6433 -0.0350
   14UNL    C29  775   1.474   1.142   1.084  0.2546 -0.2789 -0.6124
   14UNL    C30  776   1.514   1.193   1.210 -0.7875  0.0802 -0.8047
   14UNL     H1  777   1.797   1.182   1.428 -0.9591  0.0522  0.5404
   14UNL     H2  778   1.858   1.146   1.198  0.1957  1.4164  3.2382
   14UNL     H3  779   1.793   1.033   0.993  0.6910 -0.1005  2.3262
   14UNL     H4  780   1.646   1.261   0.811  0.3478 -0.1940  0.8455
   14UNL     H5  781   1.794   1.337   0.633  1.8889 -1.0258 -2.3860
   14UNL     H6  782   1.711   1.336   0.239  1.1047  1.6122  0.0471
   14UNL     H7  783   1.669   1.584   0.218 -0.6520  1.1182  1.6281
   14UNL     H8  784   2.079   1.770   0.230 -0.7261  1.3218  0.4076
   14UNL     H9  785   2.188   1.811   0.020 -1.2353  0.9259 -2.7046
   14UNL    H10  786   2.076   2.114  -0.424 -0.6888  1.1337 -0.5455
   14UNL    H11  787   2.040   2.371  -0.437 -1.9825  5.7069 -3.5975
   14UNL    H12  788   2.052   2.500  -0.216 -0.9629  1.4571  0.6898
   14UNL    H13  789   2.057   2.367  -0.003  0.0298 -0.5891  0.0353
   14UNL    H14  790   2.091   2.124  -0.006 -0.3464  0.2932 -1.3633
   14UNL    H15  791   1.829   1.939  -0.163  0.8841  0.4938 -1.0824
   14UNL    H16  792   1.707   1.878   0.053 -1.0062  0.0473  1.6038
   14UNL    H17  793   1.996   1.670   0.488 -0.7728  0.0539  2.7587
   14UNL    H18  794   2.035   1.413   0.505 -0.8999 -1.8531  3.1709
   14UNL    H19  795   1.804   0.939   0.460 -0.8354  0.3320  1.1436
   14UNL    H20  796   1.630   0.862   0.647  0.0082  0.0131 -0.7389
   14UNL    H21  797   1.369   1.134   1.059 -1.3548  1.3644 -0.1144
   14UNL    H22  798   1.444   1.243   1.277  1.7795 -0.7877  0.0029
   15UNL     S1  799   1.829   2.161   1.860 -0.2738 -0.3371 -0.2097
   15UNL     C1  800   1.837   2.210   1.698  0.6266  0.4244 -0.5719
   15UNL     C2  801   1.814   2.343   1.659 -0.6735  0.1742  0.8759
   15UNL     C3  802   1.807   2.384   1.522  0.7355  0.4273  0.6555
   15UNL     C4  803   1.818   2.292   1.417 -0.3592 -0.3091 -0.4061
   15UNL     S2  804   1.801   2.334   1.245  0.0803  0.4388 -0.1089
   15UNL     C5  805   1.618   2.305   1.223  0.3166 -0.0433 -0.7629
   15UNL     C6  806   1.551   2.226   1.317 -0.7738  0.2806 -0.1482
   15UNL     C7  807   1.418   2.209   1.309 -0.4075  0.8514  0.1480
   15UNL     C8  808   1.349   2.277   1.209  0.1555 -0.2355 -0.0653
   15UNL     S3  809   1.164   2.248   1.184  0.0424 -0.1280  0.0940
   15UNL     C9  810   1.106   2.420   1.160  0.2601  0.8620  0.4663
   15UNL    C10  811   1.009   2.452   1.065 -0.4462  0.2642  0.5093
   15UNL    C11  812   0.945   2.578   1.073  1.0200 -0.0687  0.3835
   15UNL    C12  813   0.999   2.678   1.145  0.3061  0.1422  0.2296
   15UNL     S4  814   0.933   2.839   1.121  0.4949 -0.5751 -0.0301
   15UNL    C13  815   1.059   2.926   1.035 -0.0489  0.1260  0.6542
   15UNL    C14  816   1.164   2.988   1.108 -0.2602  0.7863 -0.3281
   15UNL    C15  817   1.270   3.039   1.033 -0.4081 -0.6338 -0.6349
   15UNL    C16  818   1.280   3.023   0.892 -0.3000 -0.1630 -0.0942
   15UNL     S5  819   1.431   3.090   0.810  0.0029 -0.4787 -0.0631
   15UNL    C17  820   1.366   3.134   0.653  0.1722 -0.6089  0.9093
   15UNL    C18  821   1.375   3.050   0.536  1.0929  0.2641  0.1291
   15UNL    C19  822   1.341   3.097   0.407 -0.1739 -0.0831 -0.1333
   15UNL    C20  823   1.304   3.231   0.397 -0.2261  0.1408  0.7529
   15UNL    C21  824   1.292   3.319   0.507  0.1061 -0.5398  0.7543
   15UNL    C22  825   1.316   3.268   0.634  0.2611  0.5267 -0.2701
   15UNL    C23  826   1.167   2.967   0.821  0.4641 -0.5019  0.3713
   15UNL    C24  827   1.063   2.919   0.894  0.8469  0.1888  0.3360
   15UNL    C25  828   1.096   2.654   1.237 -0.2281 -0.5447 -0.5839
   15UNL    C26  829   1.147   2.526   1.249  0.2505  0.5730  0.4748
   15UNL    C27  830   1.416   2.343   1.108  0.6144 -0.3374  0.0006
   15UNL    C28  831   1.550   2.365   1.120 -0.4825 -0.6635  0.4145
   15UNL    C29  832   1.842   2.160   1.458 -0.8644  0.5416  0.2251
   15UNL    C30  833   1.852   2.119   1.597  0.3794  0.0954  0.5157
   15UNL     H1  834   1.704   2.111   1.853  0.5856  0.3995 -0.3823
   15UNL     H2  835   1.801   2.419   1.737  1.4932  1.2334  0.5140
   15UNL     H3  836   1.776   2.486   1.501 -0.1542  0.4075  0.5350
   15UNL     H4  837   1.608   2.176   1.400  1.8515  3.0355 -0.8768
   15UNL     H5  838   1.363   2.156   1.383  1.7715  1.3681  0.3750
   15UNL     H6  839   0.978   2.369   1.003 -1.5353 -0.1165  0.0563
   15UNL     H7  840   0.856   2.594   1.013  0.2191  3.4060  0.9284
   15UNL     H8  841   1.159   3.001   1.215  2.2909  1.4638  0.2852
   15UNL     H9  842   1.349   3.091   1.084 -1.2965  1.3235 -1.6190
   15UNL    H10  843   1.420   2.946   0.559  0.0926  0.2049 -0.7518
   15UNL    H11  844   1.345   3.027   0.324  1.6356  0.1819  2.3800
   15UNL    H12  845   1.264   3.265   0.301 -1.0373  0.1843 -1.9133
   15UNL    H13  846   1.261   3.422   0.485  0.7898  1.5504 -0.5658
   15UNL    H14  847   1.300   3.337   0.717  0.3371 -0.0864  1.0944
   15UNL    H15  848   1.177   2.954   0.715 -3.7881  4.4653 -2.4248
   15UNL    H16  849   0.989   2.862   0.839  0.5548 -1.1127  2.0462
   15UNL    H17  850   1.142   2.734   1.297 -1.3055  1.0153 -1.4735
   15UNL    H18  851   1.218   2.507   1.331 -1.3667  3.3519  3.1467
   15UNL    H19  852   1.362   2.384   1.020  1.9523  1.8379  0.9425
   15UNL    H20  853   1.604   2.434   1.054  3.0079 -2.1097  2.8508
   15UNL    H21  854   1.857   2.083   1.386  0.4610 -0.9799  1.3806
   15UNL    H22  855   1.878   2.018   1.613  0.7150  1.3789 -1.3057
   16UNL     S1  856   0.546   0.982   2.202  0.1488  0.6786 -0.4391
   16UNL     C1  857   0.406   0.898   2.283  0.4536  0.2878 -0.3262
   16UNL     C2  858   0.347   0.965   2.397  0.4244 -0.4387 -0.8090
   16UNL     C3  859   0.235   0.904   2.470 -0.3219  0.1743  0.2759
   16UNL     C4  860   0.188   0.781   2.423 -0.4511  0.2268 -0.1640
   16UNL     S2  861   0.059   0.698   2.500  0.2002  0.1306 -0.3814
   16UNL     C5  862   0.122   0.666   2.664 -0.0677 -0.0104 -0.0859
   16UNL     C6  863   0.250   0.618   2.681 -0.1973 -0.3246  0.3462
   16UNL     C7  864   0.300   0.609   2.815 -0.1038  0.1694  0.3671
   16UNL     C8  865   0.217   0.638   2.928 -0.4741  0.0561 -0.5562
   16UNL     S3  866   0.267   0.606   3.102  0.2328  0.0045 -0.0868
   16UNL     C9  867   0.404   0.504   3.073 -0.5184 -0.0667 -0.0968
   16UNL    C10  868   0.534   0.557   3.046 -0.3045  0.1495  0.9963
   16UNL    C11  869   0.647   0.473   3.043 -0.5811 -0.0289 -0.2253
   16UNL    C12  870   0.627   0.339   3.073 -0.2494  0.3811  0.1202
   16UNL     S4  871   0.778   0.239   3.081 -0.3880 -0.1874 -0.3166
   16UNL    C13  872   0.723   0.069   3.067 -0.4304 -0.3840 -1.3920
   16UNL    C14  873   0.694   0.019   2.938 -0.5654  0.3639  0.0816
   16UNL    C15  874   0.651  -0.116   2.933 -0.0434  0.1787  0.5301
   16UNL    C16  875   0.631  -0.194   3.048  0.0609 -0.2384 -0.8059
   16UNL     S5  876   0.581  -0.370   3.041  0.1468 -0.3743 -0.1556
   16UNL    C17  877   0.406  -0.355   3.065 -0.4226 -0.6202 -0.2110
   16UNL    C18  878   0.342  -0.458   3.141  0.2439 -0.2228  0.3065
   16UNL    C19  879   0.202  -0.463   3.154  0.1056 -0.5871  0.5659
   16UNL    C20  880   0.130  -0.376   3.077 -0.0088  0.3727  0.0195
   16UNL    C21  881   0.183  -0.272   3.001 -0.3218  0.0221  0.5110
   16UNL    C22  882   0.331  -0.262   2.994 -0.8128  0.1422 -0.6589
   16UNL    C23  883   0.646  -0.138   3.173 -0.0995  0.2598  0.1215
   16UNL    C24  884   0.702  -0.016   3.186 -0.0313  0.1083  0.3673
   16UNL    C25  885   0.501   0.282   3.085  0.0358  0.7179 -0.0420
   16UNL    C26  886   0.383   0.364   3.086  0.0443  0.1622 -0.1264
   16UNL    C27  887   0.088   0.689   2.911  0.2224 -1.0687 -0.6181
   16UNL    C28  888   0.039   0.695   2.780 -0.2744 -0.5306  0.9650
   16UNL    C29  889   0.249   0.716   2.312  0.1189 -0.3562 -0.4980
   16UNL    C30  890   0.350   0.778   2.240  0.7377  0.4367  0.6104
   16UNL     H1  891   0.566   1.073   2.299  0.4032  0.4971 -0.5719
   16UNL     H2  892   0.394   1.050   2.439  0.4268 -0.6596  0.0088
   16UNL     H3  893   0.207   0.942   2.556  0.9309 -3.5772  0.3051
   16UNL     H4  894   0.305   0.580   2.591  0.9018  1.5240  0.3239
   16UNL     H5  895   0.404   0.569   2.822  0.4262 -0.9282  1.2738
   16UNL     H6  896   0.555   0.658   3.017  1.2257  1.0512  0.6129
   16UNL     H7  897   0.744   0.513   3.026  0.5934 -0.3529 -0.1973
   16UNL     H8  898   0.719   0.074   2.847  1.5411 -1.0443  1.2749
   16UNL     H9  899   0.641  -0.164   2.833  0.9606 -2.9458 -0.4200
   16UNL    H10  900   0.399  -0.533   3.198 -2.6138 -1.5438  1.6369
   16UNL    H11  901   0.147  -0.538   3.212 -0.3987 -0.2775  1.5990
   16UNL    H12  902   0.024  -0.384   3.072  0.4175  2.1314  2.1340
   16UNL    H13  903   0.118  -0.207   2.940 -0.1156 -0.6144 -1.2592
   16UNL    H14  904   0.376  -0.185   2.935 -4.5751  0.7287 -0.9109
   16UNL    H15  905   0.628  -0.191   3.264  0.8205  1.1288 -0.3294
   16UNL    H16  906   0.730   0.020   3.285 -0.6733  0.3539  2.0338
   16UNL    H17  907   0.490   0.174   3.094 -0.7062  1.4799  1.1374
   16UNL    H18  908   0.292   0.329   3.117  0.9002  0.3057  1.0485
   16UNL    H19  909   0.022   0.715   2.988 -1.0258 -0.7245 -1.3891
   16UNL    H20  910  -0.058   0.734   2.761  2.8548  0.4905  0.5232
   16UNL    H21  911   0.210   0.621   2.281 -1.4452  3.8708 -0.9606
   16UNL    H22  912   0.387   0.726   2.151  1.7803 -0.6226 -2.4611
   17UNL     S1  913   2.016   1.842   1.357  0.1337  0.2338  0.4118
   17UNL     C1  914   2.173   1.764   1.390 -0.6033 -0.0435 -0.4142
   17UNL     C2  915   2.239   1.760   1.517  0.1642 -0.8305 -0.3954
   17UNL     C3  916   2.364   1.687   1.529  0.6156  0.2473 -0.0556
   17UNL     C4  917   2.424   1.621   1.420  0.8793 -0.0130  0.2229
   17UNL     S2  918   2.583   1.541   1.435  0.3313 -0.0886 -0.2637
   17UNL     C5  919   2.537   1.403   1.543  0.0563 -0.2326  0.0741
   17UNL     C6  920   2.631   1.348   1.627 -0.1881  0.0960 -0.1137
   17UNL     C7  921   2.614   1.228   1.704  0.2097 -0.3382  0.4100
   17UNL     C8  922   2.484   1.183   1.716 -0.4886  0.3535 -0.5533
   17UNL     S3  923   2.454   1.038   1.809 -0.0157  0.1701 -0.3303
   17UNL     C9  924   2.281   1.042   1.848  0.3385  0.1030  0.4842
   17UNL    C10  925   2.206   0.923   1.813 -0.3274  0.1152  0.5114
   17UNL    C11  926   2.075   0.919   1.837  0.0435 -0.2125  0.0290
   17UNL    C12  927   2.013   1.031   1.895  0.7830  0.7615  0.3225
   17UNL     S4  928   1.836   1.009   1.921 -0.0608 -0.1591  0.1864
   17UNL    C13  929   1.828   1.052   2.091 -0.8966 -0.7766 -0.1399
   17UNL    C14  930   1.889   0.972   2.196 -0.5232  0.4660  0.3076
   17UNL    C15  931   1.870   1.009   2.331 -0.0982 -0.6243 -0.5133
   17UNL    C16  932   1.786   1.115   2.364 -0.3956  0.3978 -0.7427
   17UNL     S5  933   1.749   1.143   2.541  0.0019 -0.4099  0.1805
   17UNL    C17  934   1.688   0.977   2.583 -0.1734  0.4387 -0.1910
   17UNL    C18  935   1.560   0.949   2.549 -0.1229  0.1785 -0.0756
   17UNL    C19  936   1.505   0.818   2.583  0.0770 -1.0426  0.5619
   17UNL    C20  937   1.587   0.725   2.642  0.4472  0.0134 -0.3474
   17UNL    C21  938   1.715   0.754   2.674  0.0866  0.2908  0.3889
   17UNL    C22  939   1.769   0.886   2.649  0.2977 -0.2946 -0.4882
   17UNL    C23  940   1.719   1.182   2.266 -0.0826  0.7084 -0.2092
   17UNL    C24  941   1.748   1.163   2.129  0.0024  0.1436 -0.5074
   17UNL    C25  942   2.079   1.151   1.931  0.0088  0.5029 -0.3407
   17UNL    C26  943   2.218   1.154   1.907  0.4814  0.0313 -0.9280
   17UNL    C27  944   2.381   1.242   1.636 -0.1106  0.1665 -0.3448
   17UNL    C28  945   2.409   1.347   1.542 -0.3388 -0.2819 -0.6832
   17UNL    C29  946   2.370   1.639   1.293  0.2850  0.4722  0.1165
   17UNL    C30  947   2.238   1.704   1.282 -0.0469  0.1781  0.5898
   17UNL     H1  948   1.953   1.724   1.361 -0.2218  0.7785  4.0742
   17UNL     H2  949   2.198   1.809   1.604  2.3680 -1.5198 -0.0872
   17UNL     H3  950   2.414   1.688   1.621  1.0078 -1.0270 -1.3026
   17UNL     H4  951   2.725   1.391   1.618 -0.6500  0.7163  1.4173
   17UNL     H5  952   2.695   1.175   1.744 -0.9130  1.9120  1.1497
   17UNL     H6  953   2.261   0.832   1.782 -2.1247  0.4359  2.0180
   17UNL     H7  954   2.015   0.828   1.814  0.1856 -0.6809  2.6408
   17UNL     H8  955   1.954   0.887   2.174 -0.8007 -0.8655 -1.0056
   17UNL     H9  956   1.915   0.958   2.414  1.5810  3.3337  2.4154
   17UNL    H10  957   1.497   1.021   2.498 -0.0904  1.9863  0.8483
   17UNL    H11  958   1.401   0.791   2.570  1.1338  1.0021  1.4032
   17UNL    H12  959   1.548   0.624   2.657 -0.5190 -3.3196  2.3000
   17UNL    H13  960   1.777   0.674   2.725  4.0711 -0.0075  0.6739
   17UNL    H14  961   1.868   0.906   2.676 -2.6247  0.5360  0.1557
   17UNL    H15  962   1.669   1.271   2.297  1.5021 -1.8148  0.5695
   17UNL    H16  963   1.696   1.220   2.059 -2.0575  1.0550 -1.5056
   17UNL    H17  964   2.033   1.246   1.966 -1.6620  2.5439  1.9326
   17UNL    H18  965   2.267   1.248   1.931 -0.1459  0.8362 -1.5630
   17UNL    H19  966   2.280   1.200   1.645  0.4754  1.4872  1.1197
   17UNL    H20  967   2.336   1.385   1.471  0.3452  0.4048  0.2087
   17UNL    H21  968   2.421   1.608   1.201  0.6287  1.0985 -2.0996
   17UNL    H22  969   2.188   1.720   1.183 -2.8206  0.0644  1.2585
   18UNL     S1  970   2.370   2.186   0.102  0.0716  0.0959 -0.2848
   18UNL     C1  971   2.341   2.070   0.241 -0.2605  0.2799  0.6221
   18UNL     C2  972   2.217   2.068   0.311  0.6688  0.1415  0.7656
   18UNL     C3  973   2.200   1.969   0.407 -0.0995 -0.0109 -0.0858
   18UNL     C4  974   2.294   1.880   0.437 -0.1917  0.1580  0.1364
   18UNL     S2  975   2.262   1.741   0.544  0.0704  0.0012 -0.1176
   18UNL     C5  976   2.320   1.808   0.707  0.8740 -0.0341  0.0839
   18UNL     C6  977   2.283   1.940   0.751  0.3138  0.4457 -0.0006
   18UNL     C7  978   2.321   1.988   0.878 -0.2851  0.2505  0.0090
   18UNL     C8  979   2.400   1.908   0.962  0.2666  0.0650 -0.7169
   18UNL     S3  980   2.469   1.990   1.109 -0.4719 -0.0583 -0.0140
   18UNL     C9  981   2.626   1.904   1.142 -0.2463  0.0288  0.2684
   18UNL    C10  982   2.641   1.841   1.273 -0.4697  0.5334  0.3915
   18UNL    C11  983   2.763   1.776   1.303  0.1114 -0.1742  0.8104
   18UNL    C12  984   2.871   1.781   1.220 -0.0364  0.5634  0.0157
   18UNL     S4  985   3.037   1.722   1.269  0.0297 -0.1864 -0.3730
   18UNL    C13  986   3.019   1.573   1.363  0.2963  0.3054  0.6439
   18UNL    C14  987   3.122   1.545   1.463  0.3147 -0.5941  0.0967
   18UNL    C15  988   3.110   1.419   1.529 -0.0484 -0.0146 -0.2898
   18UNL    C16  989   3.011   1.328   1.492  0.5126  0.1195  0.2459
   18UNL     S5  990   3.025   1.155   1.532  0.0498  0.0325 -0.0728
   18UNL    C17  991   3.198   1.127   1.510  0.4477  0.1038  0.3781
   18UNL    C18  992   3.260   1.187   1.406  0.8702 -0.1210  0.2443
   18UNL    C19  993   3.396   1.162   1.384 -0.0183  0.2042 -0.0525
   18UNL    C20  994   3.473   1.086   1.479 -0.4078 -0.8163  0.6334
   18UNL    C21  995   3.415   1.039   1.595  0.1699  0.1781  0.3764
   18UNL    C22  996   3.276   1.060   1.607 -0.2693  0.0564  0.5159
   18UNL    C23  997   2.907   1.363   1.396 -0.9746 -0.7818  0.3690
   18UNL    C24  998   2.912   1.491   1.333 -0.1933 -0.0581 -0.0829
   18UNL    C25  999   2.860   1.839   1.092  0.6705  0.7403 -0.4182
   18UNL    C26 1000   2.740   1.899   1.056 -0.5806 -0.1604 -0.0492
   18UNL    C27 1001   2.443   1.778   0.918  0.2218 -0.4655  0.4123
   18UNL    C28 1002   2.407   1.736   0.783 -0.1032 -0.5025 -1.1033
   18UNL    C29 1003   2.420   1.892   0.372  0.7685  0.4444  0.1348
   18UNL    C30 1004   2.441   1.981   0.265  0.1626 -1.2408 -0.0433
   18UNL     H1 1005   2.452   2.101   0.034  2.0374 -1.2727  2.6471
   18UNL     H2 1006   2.137   2.145   0.291 -0.6071 -1.0386  2.4563
   18UNL     H3 1007   2.108   1.955   0.449 -0.1689 -2.9418 -0.2818
   18UNL     H4 1008   2.220   2.003   0.683 -0.2826  0.1810  0.5430
   18UNL     H5 1009   2.304   2.094   0.919  2.1035  2.2455 -0.2859
   18UNL     H6 1010   2.569   1.843   1.351  3.5402  1.1064 -1.9350
   18UNL     H7 1011   2.771   1.729   1.399  0.4465 -2.7636 -1.0227
   18UNL     H8 1012   3.201   1.612   1.483 -0.6279 -2.0677 -0.4781
   18UNL     H9 1013   3.179   1.382   1.607  0.7364 -2.0468  0.1133
   18UNL    H10 1014   3.212   1.248   1.335  2.0688 -2.0228  2.3922
   18UNL    H11 1015   3.449   1.203   1.297 -2.5795 -0.8768 -1.0081
   18UNL    H12 1016   3.579   1.061   1.469  0.6093 -0.5459  0.9276
   18UNL    H13 1017   3.469   0.977   1.660 -0.8307  1.4904 -2.0851
   18UNL    H14 1018   3.221   1.008   1.688 -1.2312 -2.0049  0.0214
   18UNL    H15 1019   2.827   1.292   1.383  0.1694  1.0976 -1.8781
   18UNL    H16 1020   2.831   1.524   1.263  1.1974  0.7323  0.3960
   18UNL    H17 1021   2.946   1.838   1.030 -0.3911  1.7455  0.9525
   18UNL    H18 1022   2.743   1.946   0.960  0.7298  1.9413 -0.7601
   18UNL    H19 1023   2.515   1.725   0.987 -1.8775  0.4530 -0.4468
   18UNL    H20 1024   2.437   1.642   0.744  1.6869  2.7086 -0.6897
   18UNL    H21 1025   2.498   1.821   0.405  0.3150  1.8473  1.0353
   18UNL    H22 1026   2.530   1.984   0.207 -0.9478  0.0185 -0.2122
   19UNL     S1 1027   1.158   0.995   0.129  0.1001 -0.1741 -0.4796
   19UNL     C1 1028   1.250   1.106   0.234  0.1897 -0.1628 -0.4939
   19UNL     C2 1029   1.376   1.068   0.272 -0.1653 -0.7615  0.7509
   19UNL     C3 1030   1.443   1.155   0.360 -0.0519  0.1127  0.0245
   19UNL     C4 1031   1.400   1.290   0.375 -0.0147 -0.1015  0.2978
   19UNL     S2 1032   1.469   1.395   0.493  0.1087  0.2012  0.0351
   19UNL     C5 1033   1.372   1.356   0.637 -0.8579  0.1773 -1.1721
   19UNL     C6 1034   1.309   1.453   0.710  0.1488  0.2230 -0.2524
   19UNL     C7 1035   1.215   1.418   0.812  0.6841 -0.0456  0.6243
   19UNL     C8 1036   1.197   1.280   0.841  0.4803  0.0575 -0.0017
   19UNL     S3 1037   1.074   1.213   0.955  0.6055 -0.4218  0.2787
   19UNL     C9 1038   1.068   1.346   1.082 -0.1969  0.1464  0.4800
   19UNL    C10 1039   0.946   1.383   1.131  0.2002  1.0366 -0.0995
   19UNL    C11 1040   0.934   1.479   1.234 -0.3076  0.0306 -0.2085
   19UNL    C12 1041   1.045   1.534   1.295 -0.0975 -0.2532  0.4881
   19UNL     S4 1042   1.021   1.661   1.424 -0.1246 -0.0020  0.3007
   19UNL    C13 1043   1.057   1.575   1.572 -0.2838 -0.3712 -1.1190
   19UNL    C14 1044   1.076   1.433   1.583  0.0533  0.6369  0.3419
   19UNL    C15 1045   1.116   1.376   1.703 -0.3453 -0.6543  0.3974
   19UNL    C16 1046   1.130   1.451   1.820 -0.1141 -0.4023  0.1181
   19UNL     S5 1047   1.195   1.373   1.965  0.1862 -0.3671  0.0039
   19UNL    C17 1048   1.339   1.293   1.904  0.3079 -0.0635 -0.5739
   19UNL    C18 1049   1.418   1.348   1.807  0.0351  0.2017 -0.2021
   19UNL    C19 1050   1.518   1.269   1.745 -0.8610  0.1788  0.2012
   19UNL    C20 1051   1.542   1.136   1.790 -0.1219  0.3272 -1.3212
   19UNL    C21 1052   1.467   1.087   1.901 -0.5393 -0.3478 -0.8092
   19UNL    C22 1053   1.358   1.159   1.942  0.2061 -0.4624  0.6380
   19UNL    C23 1054   1.111   1.591   1.809 -0.4014  0.0199 -0.1697
   19UNL    C24 1055   1.079   1.656   1.686  0.6122 -0.4255 -0.1890
   19UNL    C25 1056   1.174   1.504   1.244 -0.6417 -0.4297 -0.8636
   19UNL    C26 1057   1.183   1.404   1.139  0.5610 -0.4439  0.4493
   19UNL    C27 1058   1.260   1.183   0.766 -0.3576 -0.4760 -0.5603
   19UNL    C28 1059   1.341   1.223   0.664 -0.2514 -0.4298 -0.4559
   19UNL    C29 1060   1.274   1.325   0.331  0.0585  0.3481 -0.0304
   19UNL    C30 1061   1.198   1.233   0.263  0.1626 -0.1092 -0.2146
   19UNL     H1 1062   1.070   1.097   0.116  3.1364  0.9063 -3.6497
   19UNL     H2 1063   1.424   0.974   0.258  2.0919 -1.4977  2.4856
   19UNL     H3 1064   1.548   1.128   0.401  3.6432 -2.7319  0.7201
   19UNL     H4 1065   1.325   1.563   0.696  0.0230 -1.5409 -0.7303
   19UNL     H5 1066   1.159   1.495   0.864  1.5516 -0.2264  0.2002
   19UNL     H6 1067   0.851   1.341   1.098 -1.9586  2.2458  1.0509
   19UNL     H7 1068   0.837   1.494   1.279 -0.0334  0.7090  3.5537
   19UNL     H8 1069   1.070   1.365   1.501  0.9658 -1.8216 -1.6530
   19UNL     H9 1070   1.115   1.270   1.717 -1.7975 -0.4263 -0.4190
   19UNL    H10 1071   1.400   1.452   1.775 -0.2577 -0.7468  2.1321
   19UNL    H11 1072   1.576   1.316   1.666 -3.4927 -0.8547 -1.4608
   19UNL    H12 1073   1.625   1.071   1.757  0.4737  0.1254  0.3693
   19UNL    H13 1074   1.489   0.986   1.929 -1.3618  0.3810 -0.3957
   19UNL    H14 1075   1.291   1.122   2.021  1.1763  3.3795 -1.6543
   19UNL    H15 1076   1.133   1.650   1.901  1.6239 -0.2253  0.0611
   19UNL    H16 1077   1.068   1.762   1.675  2.4195 -0.0948  2.0915
   19UNL    H17 1078   1.264   1.560   1.279  0.7516 -2.7136  2.4363
   19UNL    H18 1079   1.284   1.374   1.107  3.8009 -2.2627 -1.0308
   19UNL    H19 1080   1.239   1.078   0.782  0.7197 -0.7965 -2.7634
   19UNL    H20 1081   1.384   1.146   0.598  3.2459 -2.1947 -0.7437
   19UNL    H21 1082   1.225   1.417   0.359 -1.4951  0.4640 -1.8141
   19UNL    H22 1083   1.103   1.259   0.214  0.9078  0.3515  1.2027
   20UNL     S1 1084   1.811   0.202   2.387  0.0651  0.1049 -0.1913
   20UNL     C1 1085   1.900   0.354   2.399  0.3091 -0.1738 -0.1014
   20UNL     C2 1086   1.830   0.478   2.416 -0.3664 -0.6458 -0.9264
   20UNL     C3 1087   1.904   0.591   2.433  0.0163 -0.1212 -0.2089
   20UNL     C4 1088   2.039   0.587   2.422 -0.3531  0.4596  0.3499
   20UNL     S2 1089   2.124   0.743   2.430  0.1279 -0.1535 -0.0311
   20UNL     C5 1090   2.140   0.745   2.609 -0.1484  0.3233 -0.8373
   20UNL     C6 1091   2.140   0.632   2.697 -0.0638 -0.6119 -0.3678
   20UNL     C7 1092   2.142   0.645   2.834 -0.4812 -0.2202  0.0250
   20UNL     C8 1093   2.130   0.774   2.896  0.6892  0.2278  0.0266
   20UNL     S3 1094   2.126   0.795   3.074 -0.0827  0.0589  0.3814
   20UNL     C9 1095   2.290   0.846   3.109  0.0674 -0.2075  0.5240
   20UNL    C10 1096   2.364   0.799   3.219 -0.4343  0.3076  0.7788
   20UNL    C11 1097   2.481   0.863   3.251 -0.2014 -0.0358 -0.0731
   20UNL    C12 1098   2.542   0.951   3.171 -0.4149  0.1510 -0.5542
   20UNL     S4 1099   2.699   1.010   3.234  0.0872  0.0052  0.2435
   20UNL    C13 1100   2.791   1.051   3.091 -0.3932 -0.5983  0.3342
   20UNL    C14 1101   2.864   1.176   3.084 -0.0291 -1.1550  0.0523
   20UNL    C15 1102   2.957   1.199   2.985  0.2644  0.5771  0.0556
   20UNL    C16 1103   2.991   1.094   2.900  0.0480 -0.7176  0.2033
   20UNL     S5 1104   3.123   1.109   2.782  0.4838  0.1353 -0.2854
   20UNL    C17 1105   3.238   1.199   2.874 -0.6181 -0.5644  0.3789
   20UNL    C18 1106   3.252   1.333   2.844  0.9571 -0.5723  0.3635
   20UNL    C19 1107   3.346   1.413   2.911  0.0552 -0.2933  0.0816
   20UNL    C20 1108   3.427   1.360   3.014 -0.1933 -0.0805 -0.0658
   20UNL    C21 1109   3.418   1.221   3.044 -0.3337  0.0837 -0.2658
   20UNL    C22 1110   3.331   1.141   2.963 -0.1228  0.1691  0.2332
   20UNL    C23 1111   2.908   0.977   2.892 -0.0054  0.4209  0.3347
   20UNL    C24 1112   2.808   0.960   2.990 -0.0935  0.6796  0.0954
   20UNL    C25 1113   2.485   0.993   3.054 -0.8912 -0.2216 -0.0277
   20UNL    C26 1114   2.359   0.941   3.026 -0.7695 -0.4385 -0.3057
   20UNL    C27 1115   2.113   0.885   2.808  0.9454  0.7855 -0.1533
   20UNL    C28 1116   2.122   0.871   2.665 -0.6365  0.7578  0.3502
   20UNL    C29 1117   2.110   0.468   2.383 -0.4231 -0.5353 -0.1604
   20UNL    C30 1118   2.035   0.351   2.381 -0.3746  0.0805  0.4170
   20UNL     H1 1119   1.859   0.143   2.499  1.2905 -1.8768 -2.3929
   20UNL     H2 1120   1.723   0.473   2.424 -3.5763 -1.7365 -0.9707
   20UNL     H3 1121   1.852   0.684   2.449 -1.4948 -0.0359  0.7856
   20UNL     H4 1122   2.139   0.537   2.643 -0.0707  1.9883  0.1291
   20UNL     H5 1123   2.142   0.551   2.889  0.3498  2.8985 -1.5086
   20UNL     H6 1124   2.312   0.736   3.289 -2.0826  3.6323 -0.9802
   20UNL     H7 1125   2.534   0.831   3.348  1.2475  2.4158  2.9133
   20UNL     H8 1126   2.855   1.245   3.171 -1.5338 -1.5971  0.7637
   20UNL     H9 1127   3.010   1.285   2.975  0.5929 -1.4234  0.1188
   20UNL    H10 1128   3.185   1.377   2.768  2.4880 -0.1055  1.6784
   20UNL    H11 1129   3.341   1.522   2.887  1.5851 -0.2591 -1.0851
   20UNL    H12 1130   3.495   1.417   3.076 -3.0808 -1.7581 -0.3984
   20UNL    H13 1131   3.477   1.174   3.128 -2.2887 -0.5299 -0.5025
   20UNL    H14 1132   3.324   1.033   2.976  2.4730  0.7149  0.5439
   20UNL    H15 1133   2.936   0.901   2.816  2.0467  0.3804  0.9534
   20UNL    H16 1134   2.747   0.864   2.984 -0.0641 -2.8366 -0.1549
   20UNL    H17 1135   2.535   1.072   2.994  1.9598  0.4054 -1.2566
   20UNL    H18 1136   2.316   0.986   2.943  1.6939  2.7116  2.1225
   20UNL    H19 1137   2.081   0.976   2.857  0.3315 -1.5865  1.0654
   20UNL    H20 1138   2.133   0.955   2.590 -2.3513  0.7388  1.1424
   20UNL    H21 1139   2.222   0.470   2.378  0.2130  0.3459  1.4803
   20UNL    H22 1140   2.085   0.255   2.363  2.6908  2.1390 -0.8564
   2.44321   2.50574   2.50702
