system
  640
    1UNL     C1    1   0.632   1.827   0.409  0.6896 -0.0032  0.6831
    1UNL     C2    2   0.662   1.739   0.537  0.9144 -0.9546  0.2007
    1UNL     C3    3   0.555   1.636   0.569  0.3371  0.7564  0.0289
    1UNL     C4    4   0.560   1.505   0.479 -0.2954  0.3548  0.4381
    1UNL     C5    5   0.685   1.417   0.491  0.1009  0.5871  1.1058
    1UNL     C6    6   0.713   1.357   0.633  0.0197 -0.3279  0.4180
    1UNL     C7    7   0.604   1.263   0.685  0.1111 -0.4930  0.0643
    1UNL     C8    8   0.627   1.227   0.829  0.3892  0.2655 -0.8750
    1UNL     C9    9   0.592   1.335   0.931  0.4844 -0.3300  0.6712
    1UNL    C10   10   0.643   1.289   1.068 -0.6598 -0.1714  0.1010
    1UNL     H1   11   0.656   1.771   0.322 -2.4959  2.2881 -0.7336
    1UNL     H2   12   0.524   1.846   0.399  1.3575 -0.2033 -1.5790
    1UNL     H3   13   0.694   1.923   0.405 -1.0719  0.4031  0.2850
    1UNL     H4   14   0.764   1.694   0.542 -0.7517 -2.5717 -0.6024
    1UNL     H5   15   0.650   1.812   0.619 -2.2563 -1.3285  0.2860
    1UNL     H6   16   0.560   1.607   0.674  2.8554  0.8736 -0.5962
    1UNL     H7   17   0.458   1.681   0.557  0.7098  2.6339  4.2811
    1UNL     H8   18   0.475   1.445   0.495 -0.6385 -2.1020 -0.0615
    1UNL     H9   19   0.550   1.529   0.372  0.8094 -0.6969 -1.1045
    1UNL    H10   20   0.769   1.466   0.445 -2.1457 -0.3384  2.1855
    1UNL    H11   21   0.666   1.330   0.431 -0.1268  1.2032 -1.7397
    1UNL    H12   22   0.736   1.446   0.699  1.4567  0.4572  1.9460
    1UNL    H13   23   0.801   1.300   0.641 -1.0156  0.3448  1.6488
    1UNL    H14   24   0.501   1.308   0.678 -0.2945  3.4112  2.8245
    1UNL    H15   25   0.591   1.167   0.632 -0.7623  0.4457 -2.4414
    1UNL    H16   26   0.732   1.198   0.851 -1.7416  0.6448 -0.1677
    1UNL    H17   27   0.560   1.141   0.851  2.2196 -0.9643  0.4089
    1UNL    H18   28   0.624   1.436   0.913 -0.1561  0.3347  0.5365
    1UNL    H19   29   0.481   1.346   0.937 -0.3046 -0.6237  0.8060
    1UNL    H20   30   0.607   1.371   1.136 -3.9540  0.6916  0.4767
    1UNL    H21   31   0.608   1.186   1.094 -2.7474 -0.7910 -4.2746
    1UNL    H22   32   0.749   1.293   1.077  2.6215  2.4372  0.6994
    2UNL     C1   33   1.522   0.601   0.303 -0.1651  0.1035  0.3275
    2UNL     C2   34   1.596   0.740   0.303  0.2895  0.3549  0.3578
    2UNL     C3   35   1.503   0.865   0.282  0.5860 -0.6245  0.0289
    2UNL     C4   36   1.437   0.904   0.413  0.1475  0.1045 -0.3873
    2UNL     C5   37   1.338   1.032   0.387  0.6643  0.1950 -0.1785
    2UNL     C6   38   1.212   1.040   0.482 -0.4243  0.2555  0.1487
    2UNL     C7   39   1.133   0.915   0.509  0.2198  0.9295 -0.5591
    2UNL     C8   40   1.086   0.847   0.384  0.9574  0.0289 -0.0109
    2UNL     C9   41   0.991   0.726   0.415  0.2575 -0.4890  0.1493
    2UNL    C10   42   0.935   0.657   0.288 -0.4154 -0.3593  0.6764
    2UNL     H1   43   1.422   0.612   0.349 -4.0919  1.4748  0.9270
    2UNL     H2   44   1.506   0.565   0.201  1.4229  1.7269 -0.1776
    2UNL     H3   45   1.583   0.522   0.349  2.7252  0.1125 -1.2183
    2UNL     H4   46   1.660   0.764   0.394 -2.1763 -0.2414  1.3157
    2UNL     H5   47   1.662   0.745   0.219 -1.6505  2.5117 -1.7888
    2UNL     H6   48   1.553   0.952   0.250 -3.9717  0.6177 -1.4406
    2UNL     H7   49   1.433   0.833   0.201 -1.4981 -2.5487  1.0329
    2UNL     H8   50   1.379   0.815   0.449 -3.2080  0.4294  1.9754
    2UNL     H9   51   1.516   0.918   0.489 -1.4670  2.8195 -1.2321
    2UNL    H10   52   1.312   1.044   0.281  2.0859  1.2342  4.2616
    2UNL    H11   53   1.400   1.114   0.391 -0.8843  0.3971  0.0140
    2UNL    H12   54   1.137   1.114   0.456  0.4422 -3.6936  1.5484
    2UNL    H13   55   1.245   1.082   0.580 -1.3145  1.0626 -0.2459
    2UNL    H14   56   1.182   0.833   0.565  1.9800 -2.7649 -1.7818
    2UNL    H15   57   1.040   0.938   0.565 -2.3432  2.9821  0.6817
    2UNL    H16   58   1.174   0.814   0.328  0.3234 -1.1117  0.8127
    2UNL    H17   59   1.026   0.917   0.324  0.4806  0.7815 -1.1386
    2UNL    H18   60   1.045   0.656   0.480 -1.5959 -2.1806  0.6773
    2UNL    H19   61   0.897   0.759   0.471 -0.8037  0.7355  0.2524
    2UNL    H20   62   1.011   0.602   0.237 -1.3302 -0.8628 -0.4518
    2UNL    H21   63   0.889   0.572   0.318 -0.3108  1.2756 -1.6679
    2UNL    H22   64   0.865   0.720   0.228  0.0352 -1.2598  1.3357
    3UNL     C1   65   1.573   0.362   1.846  0.6062  0.1969 -0.0631
    3UNL     C2   66   1.425   0.376   1.812  0.1809  0.0870 -0.6497
    3UNL     C3   67   1.361   0.515   1.819 -0.3695 -0.6898 -0.2998
    3UNL     C4   68   1.215   0.524   1.773  0.0800 -0.0949  0.6173
    3UNL     C5   69   1.162   0.667   1.752  0.7413  0.4210  0.3786
    3UNL     C6   70   1.204   0.781   1.853  0.1876  0.0496 -0.5419
    3UNL     C7   71   1.159   0.916   1.801  0.3392 -0.2782 -0.0312
    3UNL     C8   72   1.012   0.939   1.761  0.1959  0.0104 -0.1956
    3UNL     C9   73   0.901   0.905   1.863 -0.7618 -0.1434  0.0243
    3UNL    C10   74   0.927   0.970   2.008  0.6030  0.0440 -0.1810
    3UNL     H1   75   1.603   0.406   1.940  1.9064 -0.1821 -1.4832
    3UNL     H2   76   1.599   0.259   1.831 -1.5247 -1.4115 -1.4734
    3UNL     H3   77   1.632   0.420   1.769 -0.8821 -0.6270 -1.2903
    3UNL     H4   78   1.420   0.344   1.705  2.3414 -0.7268 -2.1661
    3UNL     H5   79   1.357   0.316   1.883 -0.4654  0.0184  1.6503
    3UNL     H6   80   1.369   0.554   1.921 -2.3498 -1.1860  0.0812
    3UNL     H7   81   1.434   0.568   1.754  0.0423  0.6541 -0.1214
    3UNL     H8   82   1.199   0.459   1.680 -0.1290 -3.1142 -0.4834
    3UNL     H9   83   1.155   0.475   1.859  0.3980 -0.5933  0.8846
    3UNL    H10   84   1.054   0.665   1.741 -2.0505  2.0554  0.7210
    3UNL    H11   85   1.197   0.697   1.651  0.7404  1.0518 -0.8534
    3UNL    H12   86   1.310   0.777   1.863 -0.7918  1.2898 -0.4570
    3UNL    H13   87   1.166   0.760   1.946 -0.8256 -1.3835 -0.5272
    3UNL    H14   88   1.195   0.989   1.879 -0.8759  0.1573  2.0940
    3UNL    H15   89   1.214   0.931   1.707 -0.5661 -0.3623 -0.7434
    3UNL    H16   90   0.988   0.872   1.678 -0.2396 -1.4277 -0.7672
    3UNL    H17   91   1.011   1.044   1.735 -1.3905 -1.1209 -0.2569
    3UNL    H18   92   0.804   0.930   1.819  1.4970  2.7481 -0.3973
    3UNL    H19   93   0.892   0.794   1.882 -0.4906 -0.2438 -0.2389
    3UNL    H20   94   0.846   0.951   2.085  0.8911  2.4414 -0.2280
    3UNL    H21   95   1.026   0.935   2.043  3.6924 -0.3750 -1.6640
    3UNL    H22   96   0.937   1.078   1.999 -3.4193  0.6858 -1.4353
    4UNL     C1   97   1.516   1.392   0.206 -0.6590  0.7773 -0.7971
    4UNL     C2   98   1.374   1.344   0.161 -0.0481  0.4196 -0.0347
    4UNL     C3   99   1.365   1.235   0.055 -1.0845  0.1766 -0.5092
    4UNL     C4  100   1.442   1.269  -0.069 -0.3849  0.2813 -0.1958
    4UNL     C5  101   1.437   1.162  -0.177 -0.4225  0.1101  0.4463
    4UNL     C6  102   1.512   1.029  -0.146 -0.0546 -0.6994  0.2229
    4UNL     C7  103   1.474   0.926  -0.250 -0.2759  0.5407  0.4659
    4UNL     C8  104   1.554   0.790  -0.254 -0.5584  0.3662  0.3231
    4UNL     C9  105   1.529   0.696  -0.136  0.4034 -0.3644  0.0928
    4UNL    C10  106   1.630   0.578  -0.129  0.0902  0.3207  0.0898
    4UNL     H1  107   1.509   1.446   0.301 -0.7787  1.4681  0.2806
    4UNL     H2  108   1.591   1.309   0.193 -2.6414  2.3748 -2.4487
    4UNL     H3  109   1.544   1.466   0.129 -2.0567  3.8236 -2.4350
    4UNL     H4  110   1.335   1.303   0.252  0.9927  0.2734  1.6622
    4UNL     H5  111   1.321   1.434   0.132 -1.2757  1.5533  1.5176
    4UNL     H6  112   1.407   1.146   0.105  1.8914  1.3750 -0.3159
    4UNL     H7  113   1.263   1.201   0.034  0.4177  2.1674  3.2116
    4UNL     H8  114   1.398   1.356  -0.113  1.0693 -2.4753 -2.3517
    4UNL     H9  115   1.543   1.312  -0.048 -0.3316 -0.7982  0.9643
    4UNL    H10  116   1.465   1.202  -0.273  1.4852 -3.0425 -2.3880
    4UNL    H11  117   1.329   1.138  -0.182 -2.0004  0.5198  2.6849
    4UNL    H12  118   1.483   0.988  -0.047 -1.7025 -3.2087 -4.5941
    4UNL    H13  119   1.621   1.043  -0.139  3.1510 -0.4848  0.2878
    4UNL    H14  120   1.366   0.908  -0.243 -1.1197  0.4808  0.1673
    4UNL    H15  121   1.485   0.971  -0.350  0.2903  1.1439  2.0772
    4UNL    H16  122   1.659   0.809  -0.273 -1.8437 -1.6468  0.5436
    4UNL    H17  123   1.527   0.722  -0.339  0.4403 -2.1666  1.1534
    4UNL    H18  124   1.523   0.756  -0.045 -0.7995  0.7614  1.6467
    4UNL    H19  125   1.421   0.659  -0.154  1.9493  1.0848 -0.5315
    4UNL    H20  126   1.632   0.530  -0.037  0.0635 -0.1635 -2.1390
    4UNL    H21  127   1.605   0.493  -0.194  0.8920 -1.3748 -0.4734
    4UNL    H22  128   1.728   0.598  -0.166 -1.1970 -0.6621 -0.9243
    5UNL     C1  129   0.184   0.254   1.428 -0.0902 -0.1100 -0.2065
    5UNL     C2  130   0.322   0.247   1.496 -0.1805  0.1235 -0.5309
    5UNL     C3  131   0.440   0.202   1.412  0.5671 -0.0916  0.5565
    5UNL     C4  132   0.484   0.296   1.299 -0.0291 -0.0419  0.0695
    5UNL     C5  133   0.584   0.224   1.207  0.1967 -1.0877  0.3068
    5UNL     C6  134   0.637   0.317   1.099 -1.0204  0.5165  0.6674
    5UNL     C7  135   0.722   0.235   0.991  0.2707  0.0873 -0.2549
    5UNL     C8  136   0.787   0.330   0.893 -0.0445 -0.2526  0.0309
    5UNL     C9  137   0.843   0.247   0.775 -0.6264  0.1379  0.5202
    5UNL    C10  138   0.900   0.328   0.651 -0.9702 -0.3484  0.5290
    5UNL     H1  139   0.160   0.155   1.387  1.3699 -0.4221  0.9763
    5UNL     H2  140   0.099   0.277   1.495  0.6377 -1.9231 -2.9563
    5UNL     H3  141   0.188   0.325   1.350  0.0410  0.3170  1.5414
    5UNL     H4  142   0.350   0.347   1.541  0.9439  0.2694 -1.5589
    5UNL     H5  143   0.308   0.178   1.581 -1.0852  0.9128 -1.4062
    5UNL     H6  144   0.529   0.188   1.470 -0.0387 -1.8561  3.3738
    5UNL     H7  145   0.407   0.105   1.371 -0.0426  2.4476 -0.9757
    5UNL     H8  146   0.393   0.299   1.236 -0.2044 -2.1180  1.1047
    5UNL     H9  147   0.511   0.401   1.331  1.3817 -0.0731 -0.0690
    5UNL    H10  148   0.532   0.141   1.153 -2.4340 -1.6523  0.1447
    5UNL    H11  149   0.665   0.177   1.266 -0.1458  3.5543 -0.2359
    5UNL    H12  150   0.698   0.398   1.143 -0.4424 -0.8939 -0.8089
    5UNL    H13  151   0.547   0.368   1.056  1.6033 -1.3532 -0.2258
    5UNL    H14  152   0.800   0.164   1.039 -1.0741  0.7014  2.5072
    5UNL    H15  153   0.643   0.172   0.933  1.7635 -2.9301 -0.2231
    5UNL    H16  154   0.876   0.363   0.950 -0.3939  0.2253 -1.3020
    5UNL    H17  155   0.723   0.415   0.866 -1.6951 -1.2720  3.2723
    5UNL    H18  156   0.935   0.191   0.809 -0.0847 -0.6891 -0.4492
    5UNL    H19  157   0.782   0.167   0.746 -0.0463  2.9923  1.0981
    5UNL    H20  158   0.889   0.268   0.556  1.4891 -0.6550 -0.3247
    5UNL    H21  159   0.847   0.419   0.624 -0.2054 -1.3826 -1.3346
    5UNL    H22  160   1.000   0.357   0.671  0.9834  0.6098 -1.4908
    6UNL     C1  161   0.574   0.890   0.395 -0.3398  0.1280  0.3441
    6UNL     C2  162   0.435   0.823   0.404 -0.6992 -0.0989  0.0796
    6UNL     C3  163   0.414   0.707   0.301  0.5812 -0.0121 -0.1931
    6UNL     C4  164   0.284   0.643   0.316 -0.0915  0.5102  0.4943
    6UNL     C5  165   0.159   0.716   0.265 -0.7966 -0.7005  0.4216
    6UNL     C6  166   0.146   0.732   0.109 -0.1288  0.5408  0.3759
    6UNL     C7  167   0.027   0.804   0.049 -0.7610  0.2266 -1.0762
    6UNL     C8  168   0.033   0.816  -0.099  0.9442 -0.8182  0.0002
    6UNL     C9  169  -0.079   0.906  -0.145  0.3305 -0.5999 -0.2207
    6UNL    C10  170  -0.109   0.908  -0.298  0.0698 -0.6291 -0.3503
    6UNL     H1  171   0.660   0.814   0.396  0.8048 -3.5255 -0.9567
    6UNL     H2  172   0.573   0.952   0.309  0.6158  0.1627 -0.8744
    6UNL     H3  173   0.592   0.962   0.484  0.5137 -1.4339 -0.9078
    6UNL     H4  174   0.414   0.788   0.502 -0.9422  4.7711 -0.8614
    6UNL     H5  175   0.367   0.909   0.381  0.0314  0.7505  0.7003
    6UNL     H6  176   0.429   0.740   0.202 -0.2241  1.0741  4.3628
    6UNL     H7  177   0.490   0.627   0.332  1.9443 -0.1680 -0.2262
    6UNL     H8  178   0.287   0.540   0.267 -1.1058 -0.1330 -3.1904
    6UNL     H9  179   0.263   0.610   0.418  0.3067 -0.6207 -2.0995
    6UNL    H10  180   0.173   0.818   0.298  1.4672  1.8611 -0.1073
    6UNL    H11  181   0.071   0.683   0.309  0.7276  0.7660 -0.3142
    6UNL    H12  182   0.148   0.629   0.066  3.0996 -3.1534 -0.9930
    6UNL    H13  183   0.240   0.772   0.058 -0.5307 -1.9226 -0.7895
    6UNL    H14  184  -0.070   0.762   0.084 -2.3536  0.1065 -1.5505
    6UNL    H15  185   0.031   0.903   0.093  0.4800 -1.2205  0.4164
    6UNL    H16  186   0.013   0.718  -0.153 -2.2595 -2.1309 -1.5721
    6UNL    H17  187   0.127   0.847  -0.135 -0.9447  0.0893  0.3927
    6UNL    H18  188  -0.170   0.881  -0.095 -2.2093  0.4731  1.0221
    6UNL    H19  189  -0.063   1.009  -0.112 -0.6494 -0.2233 -1.4018
    6UNL    H20  190  -0.193   0.972  -0.323  0.7001  0.8023 -2.1212
    6UNL    H21  191  -0.018   0.958  -0.351 -2.1332 -1.2429  0.1955
    6UNL    H22  192  -0.125   0.808  -0.335  1.1579 -0.2315  0.7683
    7UNL     C1  193   0.185   0.106   0.022 -0.0240  0.1239  0.6317
    7UNL     C2  194   0.204   0.192  -0.103 -0.2871  0.3922  0.3129
    7UNL     C3  195   0.336   0.262  -0.114  0.0647  0.1538  0.4604
    7UNL     C4  196   0.358   0.363  -0.004 -0.6580 -0.4554  0.2481
    7UNL     C5  197   0.475   0.467  -0.028  0.1303 -0.2603  0.8764
    7UNL     C6  198   0.450   0.600  -0.100  0.4915  0.0763  0.2104
    7UNL     C7  199   0.564   0.709  -0.084  0.3005 -0.8672 -0.3768
    7UNL     C8  200   0.556   0.835  -0.179 -0.1310  0.5508 -0.2334
    7UNL     C9  201   0.578   0.793  -0.326 -0.0576 -0.1193  0.5512
    7UNL    C10  202   0.536   0.899  -0.433  0.2398  0.2627 -0.3890
    7UNL     H1  203   0.099   0.041   0.028  2.2171  0.0563  2.2460
    7UNL     H2  204   0.261   0.037   0.030 -2.2048 -0.0948 -1.1220
    7UNL     H3  205   0.197   0.162   0.117  0.6556  1.4976  2.2614
    7UNL     H4  206   0.180   0.133  -0.191 -1.1774 -0.2000 -1.2345
    7UNL     H5  207   0.123   0.266  -0.097  1.2229  0.5929 -0.5900
    7UNL     H6  208   0.422   0.190  -0.132  1.0197 -0.2617 -0.2381
    7UNL     H7  209   0.346   0.324  -0.208 -2.1096  4.8649  0.8484
    7UNL     H8  210   0.270   0.413   0.031  0.1417 -2.4445  0.3614
    7UNL     H9  211   0.386   0.302   0.078  2.5228  2.9510 -1.1319
    7UNL    H10  212   0.556   0.412  -0.075  0.0927 -2.3452 -0.7120
    7UNL    H11  213   0.513   0.491   0.072 -0.4850 -1.3656 -2.3793
    7UNL    H12  214   0.359   0.649  -0.062  1.1883 -0.1657 -2.0702
    7UNL    H13  215   0.435   0.585  -0.207 -0.4589  0.2156  0.5837
    7UNL    H14  216   0.572   0.737   0.020 -4.2559  1.0103  0.4524
    7UNL    H15  217   0.651   0.657  -0.118 -1.9195  0.2833 -0.2452
    7UNL    H16  218   0.639   0.902  -0.144  0.8002 -0.7817  0.9743
    7UNL    H17  219   0.466   0.887  -0.172  2.4253 -1.6571  1.8408
    7UNL    H18  220   0.683   0.751  -0.351 -1.0644  0.8077  1.2718
    7UNL    H19  221   0.510   0.707  -0.350 -1.8851 -0.3340 -1.7638
    7UNL    H20  222   0.580   0.877  -0.524 -1.0343  3.5331  2.3745
    7UNL    H21  223   0.423   0.900  -0.436 -0.2985  0.3462  1.1031
    7UNL    H22  224   0.559   1.001  -0.400  1.8578  1.5851  0.1991
    8UNL     C1  225   0.032   1.580   0.480 -0.3508  0.8316  0.7772
    8UNL     C2  226   0.177   1.586   0.436 -0.2876  0.0405 -0.3009
    8UNL     C3  227   0.199   1.658   0.304  0.1443 -0.2439 -0.1593
    8UNL     C4  228   0.178   1.818   0.324 -0.2347  0.1712  0.6281
    8UNL     C5  229   0.206   1.873   0.181  0.5441 -1.2539 -0.3140
    8UNL     C6  230   0.231   2.028   0.167 -0.3878  0.3222  0.4584
    8UNL     C7  231   0.357   2.080   0.235 -0.0143  0.1542 -0.1911
    8UNL     C8  232   0.367   2.232   0.230 -0.0133  0.3641  0.1481
    8UNL     C9  233   0.505   2.280   0.291  0.4946 -0.2336  0.1834
    8UNL    C10  234   0.540   2.426   0.290 -0.1346  0.1721  0.4902
    8UNL     H1  235  -0.022   1.514   0.411 -0.8930  1.0292 -1.2638
    8UNL     H2  236   0.027   1.520   0.573  1.2272  0.5982 -0.9788
    8UNL     H3  237  -0.016   1.673   0.510 -2.0152  4.0285  2.1947
    8UNL     H4  238   0.231   1.630   0.519  1.4505  1.1889  0.4255
    8UNL     H5  239   0.219   1.484   0.436 -1.0513  1.9554  2.4715
    8UNL     H6  240   0.301   1.650   0.270 -0.0811  1.2164 -1.4952
    8UNL     H7  241   0.125   1.610   0.231 -3.6288  0.4545  2.8578
    8UNL     H8  242   0.079   1.842   0.354  3.5868  1.1960 -2.9373
    8UNL     H9  243   0.248   1.868   0.393 -2.6749 -1.6020 -1.1261
    8UNL    H10  244   0.119   1.855   0.114  2.0225 -0.1180  0.9146
    8UNL    H11  245   0.296   1.825   0.139  2.0933  2.0960 -1.7196
    8UNL    H12  246   0.144   2.084   0.203  0.9819  0.9600 -1.7078
    8UNL    H13  247   0.248   2.057   0.063 -1.7453 -1.0010 -0.7541
    8UNL    H14  248   0.345   2.050   0.339  0.8728 -2.3216  1.6922
    8UNL    H15  249   0.452   2.033   0.208 -0.4526 -1.5530 -0.9957
    8UNL    H16  250   0.286   2.280   0.284  0.1240  2.4405  0.7482
    8UNL    H17  251   0.343   2.263   0.129 -1.7658  1.7047 -1.7134
    8UNL    H18  252   0.515   2.248   0.392  4.4100 -2.0535  0.4262
    8UNL    H19  253   0.577   2.218   0.232 -0.0974 -1.0929 -0.0096
    8UNL    H20  254   0.546   2.461   0.187  1.0880 -1.0204 -0.4545
    8UNL    H21  255   0.467   2.494   0.337 -2.6433 -1.1009 -1.2910
    8UNL    H22  256   0.632   2.446   0.345 -2.0396 -0.7035 -1.1544
    9UNL     C1  257   1.132   1.572   0.399 -0.4576 -0.7566 -0.5305
    9UNL     C2  258   1.115   1.657   0.265  0.3387  0.2129  0.5655
    9UNL     C3  259   0.969   1.696   0.237  0.3905  0.4851 -0.3024
    9UNL     C4  260   0.946   1.749   0.092  0.3613 -0.2330 -0.8431
    9UNL     C5  261   0.806   1.814   0.080  0.5361  0.2392 -0.2917
    9UNL     C6  262   0.779   1.868  -0.056 -0.5389 -0.0822  0.1125
    9UNL     C7  263   0.621   1.893  -0.081 -0.9133  0.1737  0.5559
    9UNL     C8  264   0.581   1.957  -0.215  0.3191  0.1059 -0.3925
    9UNL     C9  265   0.616   2.110  -0.227  0.1060 -0.2955 -0.3245
    9UNL    C10  266   0.523   2.191  -0.316 -0.2641  0.3073 -0.7471
    9UNL     H1  267   1.232   1.544   0.419 -0.7312  0.9066  3.3617
    9UNL     H2  268   1.104   1.627   0.486  1.8787  0.5522 -1.6730
    9UNL     H3  269   1.066   1.485   0.403 -2.8432  2.8814  1.0348
    9UNL     H4  270   1.177   1.747   0.265  0.8318  1.7387  2.5981
    9UNL     H5  271   1.143   1.587   0.180 -0.4630 -1.3877  0.0191
    9UNL     H6  272   0.901   1.610   0.246 -2.6262 -0.6965 -0.2514
    9UNL     H7  273   0.936   1.776   0.305 -2.3421  1.8229 -1.2672
    9UNL     H8  274   1.027   1.826   0.060  2.3177 -0.3681 -1.8598
    9UNL     H9  275   0.945   1.667   0.022  4.5726 -0.7842 -0.4718
    9UNL    H10  276   0.790   1.890   0.159  0.6663 -0.1148 -0.6945
    9UNL    H11  277   0.740   1.728   0.098  1.0682  1.3787 -3.0014
    9UNL    H12  278   0.804   1.788  -0.131  0.0271 -2.8249  0.4548
    9UNL    H13  279   0.840   1.958  -0.086 -0.9739 -0.1389  0.6860
    9UNL    H14  280   0.586   1.789  -0.071  1.2255  1.0004 -0.6628
    9UNL    H15  281   0.583   1.949  -0.005  0.2651  0.3893  0.5538
    9UNL    H16  282   0.474   1.953  -0.217  0.3064  0.4557 -3.5924
    9UNL    H17  283   0.621   1.901  -0.300  0.0671 -1.2404  1.3897
    9UNL    H18  284   0.613   2.164  -0.130  0.8641  2.7629  2.8481
    9UNL    H19  285   0.718   2.125  -0.265 -0.0924 -0.4284  1.1760
    9UNL    H20  286   0.517   2.162  -0.420  0.0651  1.5316 -1.4267
    9UNL    H21  287   0.421   2.194  -0.273 -0.0314 -1.0802 -1.4755
    9UNL    H22  288   0.556   2.295  -0.317 -0.2943  0.9684  0.3069
   10UNL     C1  289   0.349   1.113   1.628 -0.5133  0.5643 -0.4477
   10UNL     C2  290   0.294   0.972   1.650  0.2639 -0.1743  0.0103
   10UNL     C3  291   0.349   0.864   1.555 -0.2932 -0.4209  0.3549
   10UNL     C4  292   0.497   0.833   1.573 -0.1520 -0.0358 -0.5000
   10UNL     C5  293   0.547   0.705   1.490  0.1815  0.8469  0.5644
   10UNL     C6  294   0.702   0.686   1.516  0.1031 -0.5740  0.5142
   10UNL     C7  295   0.745   0.546   1.477  0.2228 -0.5556 -0.7174
   10UNL     C8  296   0.893   0.518   1.517  0.0567  0.1189  0.2014
   10UNL     C9  297   0.960   0.390   1.463 -0.4153  0.1655  0.0796
   10UNL    C10  298   0.988   0.397   1.314  0.4045 -0.2788 -0.8356
   10UNL     H1  299   0.368   1.122   1.520 -0.3350 -0.4963  1.0949
   10UNL     H2  300   0.280   1.193   1.671 -0.9249 -2.9386  0.1876
   10UNL     H3  301   0.434   1.118   1.693 -0.1379  1.4973  1.9296
   10UNL     H4  302   0.308   0.939   1.755  0.6107 -0.6138  0.1078
   10UNL     H5  303   0.179   0.981   1.636 -1.6097  3.1185  1.3031
   10UNL     H6  304   0.287   0.775   1.574 -0.9235  0.0073  0.9603
   10UNL     H7  305   0.325   0.887   1.449  0.9412  0.1215 -1.0721
   10UNL     H8  306   0.554   0.922   1.534 -0.5391 -4.6981 -0.8153
   10UNL     H9  307   0.525   0.817   1.675 -0.0122  1.7351 -0.3921
   10UNL    H10  308   0.509   0.722   1.384 -2.9083  0.7374  0.8850
   10UNL    H11  309   0.491   0.618   1.533  0.6041  1.4600  0.7858
   10UNL    H12  310   0.727   0.699   1.620  0.5080  0.5430 -2.3304
   10UNL    H13  311   0.752   0.771   1.460  1.3993  1.6344  0.3359
   10UNL    H14  312   0.682   0.468   1.529 -1.0897 -0.3019  0.3034
   10UNL    H15  313   0.731   0.525   1.372  0.8618 -1.2096  2.6527
   10UNL    H16  314   0.891   0.507   1.623 -1.0889  2.0828 -2.5457
   10UNL    H17  315   0.950   0.606   1.502 -1.5906 -1.5985  1.9495
   10UNL    H18  316   1.052   0.362   1.518  2.2127 -1.7667  1.5399
   10UNL    H19  317   0.891   0.310   1.486  1.2453  1.2573 -0.5847
   10UNL    H20  318   0.901   0.418   1.255 -1.6614  0.3363 -3.7645
   10UNL    H21  319   1.062   0.471   1.310 -1.1263  0.9940  1.1326
   10UNL    H22  320   1.027   0.298   1.278 -2.4715 -2.2502 -1.8280
   11UNL     C1  321   0.337   1.799   0.841  0.3406 -0.0428 -0.3684
   11UNL     C2  322   0.201   1.787   0.778  0.3697  0.3189  0.4534
   11UNL     C3  323   0.186   1.897   0.668  0.0994  0.3704 -0.3873
   11UNL     C4  324   0.155   2.036   0.725 -0.1599  0.6099 -0.3068
   11UNL     C5  325   0.122   2.133   0.613  0.2189  0.0952  0.5739
   11UNL     C6  326  -0.025   2.122   0.574 -0.0592 -0.4576 -0.2440
   11UNL     C7  327  -0.064   2.197   0.442  0.2622 -0.0585 -0.3869
   11UNL     C8  328  -0.158   2.107   0.357 -0.2261 -0.0469 -0.0346
   11UNL     C9  329  -0.165   2.160   0.211  0.1872  1.1070 -0.0259
   11UNL    C10  330  -0.199   2.314   0.197  0.2088 -0.4150 -0.0475
   11UNL     H1  331   0.360   1.712   0.910 -0.0377 -0.5353  1.5240
   11UNL     H2  332   0.415   1.791   0.762  1.5344  0.7126  0.3393
   11UNL     H3  333   0.359   1.887   0.903  2.8968 -1.9960  0.5152
   11UNL     H4  334   0.205   1.693   0.724 -0.4659 -1.5195  0.6711
   11UNL     H5  335   0.120   1.793   0.852 -0.0332 -2.3315  1.7783
   11UNL     H6  336   0.280   1.907   0.606  1.8403  1.1141  0.0097
   11UNL     H7  337   0.113   1.854   0.603 -0.0296 -1.5656 -1.1021
   11UNL     H8  338   0.074   2.026   0.797  1.1918 -2.8368  1.8250
   11UNL     H9  339   0.241   2.065   0.792 -0.5980  1.0133  1.7615
   11UNL    H10  340   0.181   2.113   0.522  0.2622 -0.9994 -1.4412
   11UNL    H11  341   0.151   2.224   0.659  2.0605 -1.2990  0.2259
   11UNL    H12  342  -0.074   2.178   0.653 -0.2393  0.3159  0.7648
   11UNL    H13  343  -0.051   2.017   0.568 -0.6620  2.4865  2.3059
   11UNL    H14  344  -0.121   2.287   0.465  0.1409  0.2150 -0.3119
   11UNL    H15  345   0.029   2.224   0.378 -1.2697 -1.4093 -0.0425
   11UNL    H16  346  -0.262   2.103   0.388  3.5755 -0.1730  3.6031
   11UNL    H17  347  -0.108   2.011   0.350  0.4206 -0.0478 -0.6636
   11UNL    H18  348  -0.069   2.133   0.163  0.0113 -0.7489 -2.3897
   11UNL    H19  349  -0.247   2.105   0.158 -2.5258 -0.8246  1.5254
   11UNL    H20  350  -0.305   2.333   0.225 -0.6917  1.3530 -1.4133
   11UNL    H21  351  -0.141   2.385   0.258  1.7810 -0.7840 -1.1245
   11UNL    H22  352  -0.192   2.344   0.091  2.2805 -0.2210  3.2140
   12UNL     C1  353   0.665   0.356   0.363 -0.4661 -0.1715 -0.4002
   12UNL     C2  354   0.732   0.331   0.227  0.5543  0.1928  0.2180
   12UNL     C3  355   0.866   0.254   0.227  0.2170  0.4595  0.6761
   12UNL     C4  356   0.907   0.196   0.093 -0.0709  0.3486 -0.2932
   12UNL     C5  357   0.817   0.089   0.033 -0.6471 -0.5094  0.0429
   12UNL     C6  358   0.838  -0.052   0.090  0.7623  0.2693  0.5482
   12UNL     C7  359   0.982  -0.104   0.060  0.0316 -1.1691 -0.2292
   12UNL     C8  360   0.995  -0.249   0.104 -0.1599  0.2225 -0.5271
   12UNL     C9  361   0.994  -0.286   0.259 -0.5991  0.3947 -0.0796
   12UNL    C10  362   1.103  -0.235   0.358  0.5172  0.2257 -0.2953
   12UNL     H1  363   0.739   0.414   0.419 -1.7804  3.0633 -0.4297
   12UNL     H2  364   0.569   0.408   0.357  2.0926  0.0971 -1.2746
   12UNL     H3  365   0.652   0.269   0.423  0.7180  2.1627 -1.7981
   12UNL     H4  366   0.656   0.277   0.173  2.2664  0.5738 -1.0975
   12UNL     H5  367   0.724   0.427   0.174 -0.7637  2.1852 -1.9306
   12UNL     H6  368   0.956   0.320   0.259  0.1250  0.8096  0.7002
   12UNL     H7  369   0.860   0.172   0.298 -0.5392 -0.0993  1.8123
   12UNL     H8  370   0.909   0.282   0.022  2.0688  3.0411 -0.6019
   12UNL     H9  371   1.003   0.163   0.097 -0.6845  2.9218 -0.5553
   12UNL    H10  372   0.826   0.090  -0.077 -1.9970  1.7803 -2.2204
   12UNL    H11  373   0.714   0.120   0.046  0.2175  0.9828 -1.7126
   12UNL    H12  374   0.773  -0.128   0.054  0.4481  1.2198  0.7536
   12UNL    H13  375   0.821  -0.054   0.198 -1.4533 -1.5196  1.6280
   12UNL    H14  376   1.012  -0.107  -0.039 -0.4513 -0.3751 -1.1581
   12UNL    H15  377   1.063  -0.039   0.103  0.2004 -0.6648 -1.1586
   12UNL    H16  378   1.090  -0.275   0.057 -1.0633 -0.0390  2.5922
   12UNL    H17  379   0.922  -0.307   0.047 -2.0077  0.3217 -0.4951
   12UNL    H18  380   0.900  -0.243   0.283  1.7520 -0.7460  1.5614
   12UNL    H19  381   0.984  -0.401   0.277  0.1054  0.0675 -1.6515
   12UNL    H20  382   1.114  -0.128   0.345 -1.8286 -0.3268 -1.8582
   12UNL    H21  383   1.062  -0.263   0.460  0.3655 -1.3667  3.0699
   12UNL    H22  384   1.191  -0.302   0.349 -1.5151  1.0564 -1.0014
   13UNL     C1  385   0.390   0.136   0.660 -0.0744  0.1930  0.3545
   13UNL     C2  386   0.316   0.238   0.744  0.1029  0.6985 -0.2386
   13UNL     C3  387   0.363   0.375   0.720  0.3444  0.3668  0.2038
   13UNL     C4  388   0.275   0.481   0.792  0.4518 -0.5246 -0.3063
   13UNL     C5  389   0.288   0.493   0.944  0.5699 -0.3696  0.0431
   13UNL     C6  390   0.205   0.600   1.018 -0.4003  0.6508 -0.3679
   13UNL     C7  391   0.230   0.606   1.174  0.3864 -0.2737 -0.8906
   13UNL     C8  392   0.142   0.706   1.251 -0.3858  0.3812  0.0920
   13UNL     C9  393  -0.008   0.682   1.264 -0.1996 -1.1262 -0.8134
   13UNL    C10  394  -0.038   0.543   1.317 -0.4753 -0.0106  0.2566
   13UNL     H1  395   0.500   0.139   0.680  0.9012  0.3212  0.4254
   13UNL     H2  396   0.351   0.037   0.695 -2.6532 -1.7191 -1.7677
   13UNL     H3  397   0.361   0.144   0.552  1.7150  0.7290 -0.1391
   13UNL     H4  398   0.208   0.232   0.731  2.4852  3.0081 -2.3291
   13UNL     H5  399   0.332   0.207   0.850  0.4341 -3.2146  1.6087
   13UNL     H6  400   0.472   0.387   0.749 -0.6828  1.2188  1.6682
   13UNL     H7  401   0.362   0.387   0.606  0.9592 -1.4509 -1.5915
   13UNL     H8  402   0.302   0.577   0.748 -1.7827  1.5166  0.2397
   13UNL     H9  403   0.167   0.473   0.763  0.2027 -0.3325  2.6938
   13UNL    H10  404   0.398   0.502   0.972 -2.3873  2.0484  1.9495
   13UNL    H11  405   0.254   0.397   0.985  0.4503 -2.1401  0.0356
   13UNL    H12  406   0.093   0.582   1.022 -1.9999 -0.5594  1.3901
   13UNL    H13  407   0.221   0.702   0.987 -0.5955 -2.5578  0.7037
   13UNL    H14  408   0.204   0.507   1.215 -0.5910 -1.2266  1.3416
   13UNL    H15  409   0.330   0.641   1.196 -2.2659  1.6034  0.5439
   13UNL    H16  410   0.150   0.807   1.210  0.9899 -1.3446  2.6799
   13UNL    H17  411   0.178   0.696   1.352 -0.6670  1.1980  2.1187
   13UNL    H18  412  -0.053   0.752   1.335 -2.1213 -1.4890  2.3404
   13UNL    H19  413  -0.061   0.690   1.167 -0.7371  3.4153  0.5292
   13UNL    H20  414   0.009   0.525   1.413 -0.2866 -1.9901 -0.5398
   13UNL    H21  415  -0.147   0.537   1.322  1.2099  1.3964 -0.0454
   13UNL    H22  416   0.004   0.457   1.253 -2.1770 -0.0643 -1.7224
   14UNL     C1  417   1.260   0.014   0.744  0.1115 -0.8157  0.2250
   14UNL     C2  418   1.250   0.075   0.598  0.5327  0.3010 -0.1032
   14UNL     C3  419   1.349   0.198   0.578 -0.1324 -0.5896  0.8708
   14UNL     C4  420   1.343   0.256   0.430  0.3667 -0.2360  0.4582
   14UNL     C5  421   1.408   0.154   0.334 -0.2731  0.4329  0.0727
   14UNL     C6  422   1.405   0.193   0.183 -0.2761 -0.5490 -0.3299
   14UNL     C7  423   1.464   0.083   0.091 -0.2133 -0.1038  0.2953
   14UNL     C8  424   1.390  -0.057   0.088  0.3758  0.1624  0.0308
   14UNL     C9  425   1.459  -0.160  -0.005 -0.4092 -0.4899 -0.5421
   14UNL    C10  426   1.380  -0.284  -0.032  0.1454 -0.2982  0.1562
   14UNL     H1  427   1.177  -0.056   0.762 -0.2601  1.7902 -1.6701
   14UNL     H2  428   1.355  -0.041   0.750 -1.5446 -0.2829  2.2378
   14UNL     H3  429   1.265   0.090   0.821  1.3737  1.2502 -0.2552
   14UNL     H4  430   1.278  -0.003   0.530 -0.2593 -1.4338  0.7096
   14UNL     H5  431   1.147   0.101   0.589  0.2581 -1.8521  2.9602
   14UNL     H6  432   1.318   0.279   0.644 -0.6091  0.0817  1.6838
   14UNL     H7  433   1.455   0.184   0.596  0.4834 -0.2395  0.1544
   14UNL     H8  434   1.236   0.259   0.401  0.6428  0.5149  0.1898
   14UNL     H9  435   1.376   0.364   0.424  0.2620  3.2111 -0.6192
   14UNL    H10  436   1.366   0.061   0.350 -1.7810 -1.2211 -2.3294
   14UNL    H11  437   1.514   0.151   0.361  0.5979 -0.5487 -0.4109
   14UNL    H12  438   1.465   0.287   0.179  1.5440 -1.5656  0.2477
   14UNL    H13  439   1.306   0.214   0.148  2.0723  4.4940 -1.0257
   14UNL    H14  440   1.475   0.127  -0.006  1.3891 -0.9962  0.8680
   14UNL    H15  441   1.570   0.068   0.126  0.7740 -1.5744  1.2022
   14UNL    H16  442   1.292  -0.042   0.037  3.0231 -2.2617  0.9561
   14UNL    H17  443   1.381  -0.092   0.186 -1.1806 -0.6172 -1.4580
   14UNL    H18  444   1.495  -0.124  -0.099 -0.9540  1.6031 -2.0788
   14UNL    H19  445   1.553  -0.189   0.043  0.8364  0.4755 -0.2227
   14UNL    H20  446   1.434  -0.347  -0.103 -0.1990  1.1706  0.3977
   14UNL    H21  447   1.362  -0.339   0.063 -0.3565 -1.9044 -1.1278
   14UNL    H22  448   1.286  -0.264  -0.080  2.3464  1.2795 -0.6214
   15UNL     C1  449   0.257   1.219   0.197 -0.5173  0.4915 -0.8072
   15UNL     C2  450   0.390   1.224   0.115 -0.1814  0.5564  0.3004
   15UNL     C3  451   0.519   1.242   0.187  0.4143 -0.0541 -0.3540
   15UNL     C4  452   0.636   1.204   0.088  0.0514  0.1328 -0.0060
   15UNL     C5  453   0.775   1.231   0.151 -0.0408 -0.4148  0.2695
   15UNL     C6  454   0.882   1.227   0.038 -0.1404  0.3032 -0.7115
   15UNL     C7  455   0.885   1.100  -0.049  0.2374  0.5768  0.5839
   15UNL     C8  456   0.915   0.970   0.026 -0.0057 -0.7579 -0.2951
   15UNL     C9  457   0.969   0.842  -0.046 -0.0423  0.5583  0.2349
   15UNL    C10  458   1.127   0.851  -0.071 -0.0969 -0.3402 -0.3242
   15UNL     H1  459   0.257   1.131   0.257  0.4415  0.0849 -0.3882
   15UNL     H2  460   0.252   1.294   0.284  1.1574  1.3253 -0.1485
   15UNL     H3  461   0.175   1.213   0.128 -1.8266  0.4914  1.4216
   15UNL     H4  462   0.395   1.128   0.062 -2.5009 -0.3150 -0.1499
   15UNL     H5  463   0.370   1.291   0.031 -1.2024  2.9991 -0.3131
   15UNL     H6  464   0.528   1.349   0.211  1.8375 -1.9681 -3.0493
   15UNL     H7  465   0.515   1.182   0.278  1.0398 -0.5842  0.0819
   15UNL     H8  466   0.639   1.100   0.064  2.0424  3.7314  1.9913
   15UNL     H9  467   0.628   1.272  -0.004  0.0157  1.7141 -0.8470
   15UNL    H10  468   0.800   1.168   0.237  1.0828 -1.9061  1.2279
   15UNL    H11  469   0.780   1.330   0.193 -1.3900  0.9267  0.0278
   15UNL    H12  470   0.982   1.240   0.075 -0.8992  0.1145  1.0820
   15UNL    H13  471   0.864   1.309  -0.033  0.5594 -0.1888 -0.2941
   15UNL    H14  472   0.783   1.097  -0.095 -0.7303  1.5128  0.4161
   15UNL    H15  473   0.952   1.129  -0.131  0.1803  0.8488 -0.5478
   15UNL    H16  474   0.821   0.936   0.059 -2.0874 -2.0395 -2.0870
   15UNL    H17  475   0.979   0.989   0.116  0.4330 -1.4533 -0.1170
   15UNL    H18  476   0.958   0.751   0.018  1.1240 -0.1609  0.7504
   15UNL    H19  477   0.925   0.816  -0.139  0.5825  0.9103  2.7581
   15UNL    H20  478   1.153   0.764  -0.136 -0.2828  1.5387 -2.0048
   15UNL    H21  479   1.164   0.938  -0.126  1.5835 -2.3846 -1.0811
   15UNL    H22  480   1.181   0.844   0.020 -1.0665 -1.8549 -0.4731
   16UNL     C1  481   0.613   0.815   0.901 -0.2397 -0.5789  0.2931
   16UNL     C2  482   0.698   0.750   1.026  0.7194 -0.0629 -0.0300
   16UNL     C3  483   0.818   0.836   1.058 -0.5201 -0.2255  0.4423
   16UNL     C4  484   0.901   0.765   1.161  0.0814 -0.2987  0.2799
   16UNL     C5  485   1.024   0.847   1.210 -0.3010  0.0861 -0.2961
   16UNL     C6  486   1.019   0.996   1.234  1.2194  0.4597 -0.7954
   16UNL     C7  487   0.932   1.026   1.358  0.4558  0.0919 -0.3085
   16UNL     C8  488   0.937   1.173   1.410 -0.3360  0.0585 -0.1894
   16UNL     C9  489   0.844   1.199   1.533  0.1509 -0.1612 -0.7050
   16UNL    C10  490   0.692   1.198   1.508  1.0504  0.4004  0.2417
   16UNL     H1  491   0.613   0.923   0.914  0.1064  0.8365  2.3225
   16UNL     H2  492   0.659   0.777   0.808  1.5165  1.6229  1.9062
   16UNL     H3  493   0.510   0.776   0.901 -1.9257  1.6036  0.2073
   16UNL     H4  494   0.632   0.743   1.110 -3.9806  1.9192  2.0777
   16UNL     H5  495   0.729   0.643   0.993  0.1051  0.5649 -0.9813
   16UNL     H6  496   0.882   0.835   0.968 -0.3880  3.0549  3.1142
   16UNL     H7  497   0.782   0.931   1.088 -0.0741  0.6330  0.1539
   16UNL     H8  498   0.842   0.742   1.252  0.4080  1.4859 -2.5677
   16UNL     H9  499   0.931   0.665   1.126  2.4765 -1.4381  0.1137
   16UNL    H10  500   1.092   0.836   1.127 -1.6043  0.8592 -0.1614
   16UNL    H11  501   1.075   0.795   1.296 -0.9298  1.4659 -2.0321
   16UNL    H12  502   0.983   1.042   1.144  2.2670  2.4535 -3.0168
   16UNL    H13  503   1.119   1.040   1.256  0.8190 -2.9713 -0.2697
   16UNL    H14  504   0.830   0.999   1.319  1.7170 -0.8700  0.3694
   16UNL    H15  505   0.970   0.957   1.432  0.0644 -0.2525 -1.0062
   16UNL    H16  506   0.905   1.244   1.332 -3.3761  1.0776 -1.2220
   16UNL    H17  507   1.041   1.189   1.438 -0.1893 -1.3821  0.4974
   16UNL    H18  508   0.857   1.125   1.611 -1.9232  0.0973  0.7629
   16UNL    H19  509   0.868   1.295   1.564 -1.3224  1.3380 -1.6857
   16UNL    H20  510   0.643   1.108   1.467  1.2622 -0.2281  0.7107
   16UNL    H21  511   0.647   1.219   1.605  4.3206 -1.4977 -1.5250
   16UNL    H22  512   0.669   1.280   1.447 -0.9887  0.0481  2.4382
   17UNL     C1  513   1.002   0.469   2.137 -0.5946  0.2886 -0.4744
   17UNL     C2  514   0.905   0.367   2.186 -0.6304 -0.2560  0.6753
   17UNL     C3  515   0.822   0.305   2.069  0.1557  0.3899  0.4906
   17UNL     C4  516   0.724   0.405   2.002 -0.1794  0.6851  0.0037
   17UNL     C5  517   0.660   0.336   1.880 -0.4377  0.7402 -0.3462
   17UNL     C6  518   0.541   0.408   1.812  0.4600 -0.7293 -0.4186
   17UNL     C7  519   0.417   0.445   1.906  0.2762  0.1813 -0.8480
   17UNL     C8  520   0.301   0.506   1.823  0.3176  0.1694  0.1142
   17UNL     C9  521   0.211   0.606   1.906  0.2173  0.0221  0.5969
   17UNL    C10  522   0.089   0.664   1.817 -0.2364 -0.5714  0.3573
   17UNL     H1  523   1.050   0.508   2.221 -1.2918  1.8190 -0.2608
   17UNL     H2  524   1.077   0.425   2.068 -1.2846  0.2889  2.9408
   17UNL     H3  525   0.951   0.549   2.083  1.9456 -0.5615  1.4249
   17UNL     H4  526   0.974   0.285   2.220  0.2575  1.1764 -1.4310
   17UNL     H5  527   0.845   0.419   2.266  0.1463  1.7825  2.3243
   17UNL     H6  528   0.893   0.269   1.995 -0.5463  0.6595  2.6373
   17UNL     H7  529   0.773   0.215   2.106  0.9220  0.3970 -0.6445
   17UNL     H8  530   0.648   0.427   2.088  1.1077 -0.2109  1.5291
   17UNL     H9  531   0.767   0.504   1.978  3.0811 -2.0816  1.1410
   17UNL    H10  532   0.630   0.235   1.910  2.2651 -1.1016  0.2418
   17UNL    H11  533   0.737   0.315   1.810 -1.0331 -2.2310  1.4802
   17UNL    H12  534   0.519   0.347   1.730  2.8512 -0.4568 -1.5722
   17UNL    H13  535   0.580   0.498   1.774  0.1523 -1.5617 -1.4070
   17UNL    H14  536   0.389   0.364   1.969  1.4663  1.0270 -0.6245
   17UNL    H15  537   0.457   0.516   1.978  0.2605 -3.3989  1.4327
   17UNL    H16  538   0.235   0.432   1.769 -0.7688  1.3049 -1.3399
   17UNL    H17  539   0.347   0.555   1.741  1.0872 -0.8594  0.8397
   17UNL    H18  540   0.171   0.560   1.992  0.3238 -1.3281 -3.5100
   17UNL    H19  541   0.265   0.695   1.943 -1.7300 -2.0939  1.3359
   17UNL    H20  542   0.032   0.737   1.875 -2.6069 -1.9016 -1.4160
   17UNL    H21  543   0.122   0.719   1.727 -5.1980  4.7297 -1.7566
   17UNL    H22  544   0.014   0.592   1.795 -0.1083  0.1729 -2.0234
   18UNL     C1  545   1.260   1.588   2.117  0.0822 -0.3040 -0.7136
   18UNL     C2  546   1.197   1.725   2.155  0.0018 -0.1047 -0.7793
   18UNL     C3  547   1.222   1.848   2.057 -0.0625  0.1629 -0.1130
   18UNL     C4  548   1.104   1.947   2.068  0.7753 -0.1045 -0.0877
   18UNL     C5  549   1.130   2.080   1.990  0.6628 -0.4577  0.7170
   18UNL     C6  550   1.015   2.186   2.013 -0.1551  0.5752  0.0233
   18UNL     C7  551   1.037   2.316   1.933 -0.0542 -0.1491 -0.1405
   18UNL     C8  552   0.956   2.316   1.795 -0.4450  0.1875 -0.4892
   18UNL     C9  553   0.972   2.446   1.713  0.3388 -0.0642 -0.1228
   18UNL    C10  554   1.123   2.455   1.679 -0.1939  0.3111 -0.8849
   18UNL     H1  555   1.195   1.563   2.027  3.1402 -1.6646 -2.2459
   18UNL     H2  556   1.369   1.605   2.087  0.6228  3.1462 -2.9460
   18UNL     H3  557   1.262   1.515   2.190  1.9698  2.0901  0.8105
   18UNL     H4  558   1.087   1.712   2.173 -1.1217  1.1024  2.6158
   18UNL     H5  559   1.234   1.754   2.256  0.6749  0.6916  1.4885
   18UNL     H6  560   1.311   1.898   2.097 -0.8746 -1.4375 -0.2524
   18UNL     H7  561   1.244   1.822   1.952 -3.4506  1.8395  0.0002
   18UNL     H8  562   1.024   1.885   2.023 -1.6308 -1.9517 -1.1888
   18UNL     H9  563   1.070   1.965   2.174 -0.7326 -2.4703 -1.9103
   18UNL    H10  564   1.136   2.042   1.877  0.3693 -1.2034 -2.5310
   18UNL    H11  565   1.227   2.121   2.011  0.0210 -0.5617  1.5500
   18UNL    H12  566   1.010   2.209   2.114 -1.2865 -1.0576 -1.7614
   18UNL    H13  567   0.926   2.139   1.991 -0.3752  0.2334  0.8896
   18UNL    H14  568   0.997   2.405   1.986 -0.7541 -0.8497 -0.0898
   18UNL    H15  569   1.142   2.333   1.921  1.7301  0.1977 -0.4940
   18UNL    H16  570   0.851   2.292   1.815  0.1466 -1.4604 -1.7079
   18UNL    H17  571   0.981   2.224   1.743 -0.4212  1.0967  2.4663
   18UNL    H18  572   0.916   2.454   1.622 -1.5583  0.4793  1.3778
   18UNL    H19  573   0.947   2.529   1.781  2.0922  0.1538 -3.4679
   18UNL    H20  574   1.185   2.474   1.771  2.3977 -1.0734  1.3344
   18UNL    H21  575   1.158   2.354   1.647 -3.2676 -2.0429 -2.4878
   18UNL    H22  576   1.150   2.536   1.609  0.4282  0.7120 -1.0398
   19UNL     C1  577   0.014   2.222   2.102  0.9115 -0.0709  0.5036
   19UNL     C2  578   0.012   2.270   1.962 -0.1494  0.0928 -0.4130
   19UNL     C3  579  -0.036   2.418   1.953  0.1843 -0.1162  0.4747
   19UNL     C4  580  -0.068   2.446   1.807 -0.4022 -0.0997  0.9913
   19UNL     C5  581  -0.099   2.601   1.787 -0.1705 -0.4873 -0.3902
   19UNL     C6  582  -0.251   2.635   1.826 -0.0847 -0.2168  0.6970
   19UNL     C7  583  -0.290   2.776   1.783 -0.1990  0.1222  0.2934
   19UNL     C8  584  -0.416   2.819   1.861 -0.9528 -0.2228 -0.6732
   19UNL     C9  585  -0.485   2.961   1.846  0.0172  0.3072 -0.0616
   19UNL    C10  586  -0.520   3.005   1.707 -0.3496 -0.1773  0.0790
   19UNL     H1  587  -0.084   2.245   2.153 -3.0921 -2.4120 -1.1082
   19UNL     H2  588   0.023   2.116   2.091  1.6329  0.9637  0.4842
   19UNL     H3  589   0.090   2.268   2.161  0.8187  1.3342  0.5019
   19UNL     H4  590   0.112   2.258   1.920 -2.8711 -1.0018  1.8435
   19UNL     H5  591  -0.058   2.200   1.911 -0.5901 -0.0510 -0.5561
   19UNL     H6  592  -0.128   2.435   2.023 -1.0974 -0.6848  1.9027
   19UNL     H7  593   0.044   2.485   1.982 -0.2974  3.7463 -0.3112
   19UNL     H8  594   0.020   2.432   1.752  1.3994  0.9631 -1.8654
   19UNL     H9  595  -0.145   2.375   1.771  2.7958  0.0669  0.1167
   19UNL    H10  596  -0.085   2.636   1.681  1.9122 -1.3054 -0.8498
   19UNL    H11  597  -0.030   2.664   1.844  2.6899  0.6000 -1.4948
   19UNL    H12  598  -0.268   2.622   1.936 -0.0454  0.0732  3.5746
   19UNL    H13  599  -0.323   2.565   1.787 -1.7722 -1.2872  0.9760
   19UNL    H14  600  -0.217   2.838   1.819 -0.1662  2.6329  1.3036
   19UNL    H15  601  -0.293   2.789   1.669  0.6514 -2.4414  1.3482
   19UNL    H16  602  -0.381   2.815   1.966 -0.2008 -1.5871 -1.0570
   19UNL    H17  603  -0.500   2.752   1.841 -2.3672 -2.1520 -0.9877
   19UNL    H18  604  -0.573   2.970   1.914 -0.6010  0.6413  2.5077
   19UNL    H19  605  -0.419   3.037   1.893 -0.0656  0.6030 -1.2503
   19UNL    H20  606  -0.591   2.931   1.659 -2.9615  1.7534 -2.3848
   19UNL    H21  607  -0.574   3.099   1.716  0.6115 -1.6255  1.1437
   19UNL    H22  608  -0.422   3.009   1.656 -2.9770 -1.1486 -0.0136
   20UNL     C1  609   2.264   1.589   1.977 -0.0807  0.6360  0.5135
   20UNL     C2  610   2.342   1.513   1.864  1.1788 -0.8845  0.2668
   20UNL     C3  611   2.335   1.351   1.870  0.1462 -0.5105 -0.1518
   20UNL     C4  612   2.374   1.282   2.003  0.3603 -0.6777  0.0178
   20UNL     C5  613   2.507   1.327   2.074 -0.0424 -0.4321 -0.2948
   20UNL     C6  614   2.633   1.320   1.990 -0.8098 -0.0666  0.9421
   20UNL     C7  615   2.764   1.357   2.068 -0.2392 -0.1512 -0.2561
   20UNL     C8  616   2.891   1.382   1.993  0.0095  1.1856 -0.0318
   20UNL     C9  617   3.003   1.419   2.085  0.2116 -0.0614 -0.3393
   20UNL    C10  618   3.140   1.398   2.023  0.2164 -0.2266 -0.2744
   20UNL     H1  619   2.159   1.560   1.971  0.4730  0.2640  0.3885
   20UNL     H2  620   2.320   1.561   2.072 -0.0052 -2.4969  1.7654
   20UNL     H3  621   2.263   1.696   1.967  0.2709 -2.5194 -1.6060
   20UNL     H4  622   2.290   1.540   1.766 -2.0296 -0.8914 -0.9457
   20UNL     H5  623   2.448   1.539   1.862  0.2340  0.6115  0.9456
   20UNL     H6  624   2.235   1.318   1.842 -0.1286 -3.6562 -0.3958
   20UNL     H7  625   2.398   1.326   1.790  1.2542 -0.1158  0.1894
   20UNL     H8  626   2.286   1.298   2.075 -1.6546  1.0788 -0.8649
   20UNL     H9  627   2.393   1.177   1.983  1.1437 -1.6530  1.2775
   20UNL    H10  628   2.527   1.262   2.164  0.8258 -1.2928  1.1526
   20UNL    H11  629   2.494   1.429   2.118 -0.7374  2.7540  0.7029
   20UNL    H12  630   2.625   1.401   1.917 -1.5716  3.0365 -0.4488
   20UNL    H13  631   2.639   1.228   1.929 -2.7453 -0.2828 -0.4334
   20UNL    H14  632   2.739   1.450   2.118 -1.2905 -0.7267  0.6323
   20UNL    H15  633   2.791   1.272   2.128 -0.8206  0.3312 -1.8393
   20UNL    H16  634   2.870   1.470   1.925 -1.6488  1.2772 -0.4593
   20UNL    H17  635   2.918   1.304   1.922  1.2705 -1.2588  0.5595
   20UNL    H18  636   2.983   1.522   2.097 -0.4979 -2.2169 -3.2318
   20UNL    H19  637   2.997   1.364   2.184  2.1298  0.7253  2.4653
   20UNL    H20  638   3.144   1.449   1.919  3.9163  0.7705 -2.4592
   20UNL    H21  639   3.217   1.431   2.093 -1.0391 -1.2092  0.0988
   20UNL    H22  640   3.149   1.283   2.009  1.2504 -2.5226 -0.3818
   2.39513   2.39513   2.39513
