; system_GMX.top created by acpype (v: 2023.10.27) on Mon Jul 13 00:58:13 2026

[ defaults ]
; nbfunc        comb-rule       gen-pairs       fudgeLJ fudgeQQ
1               2               yes             0.5     0.8333333333

[ atomtypes ]
;name   bond_type     mass     charge   ptype   sigma         epsilon       Amb
 sh       sh          0.00000  0.00000   A     3.53241e-01   1.18156e+00 ; 1.98  0.2824
 ca       ca          0.00000  0.00000   A     3.31521e-01   4.13379e-01 ; 1.86  0.0988
 ss       ss          0.00000  0.00000   A     3.53241e-01   1.18156e+00 ; 1.98  0.2824
 hs       hs          0.00000  0.00000   A     1.08903e-01   5.18816e-02 ; 0.61  0.0124
 ha       ha          0.00000  0.00000   A     2.62548e-01   6.73624e-02 ; 1.47  0.0161

[ moleculetype ]
;name            nrexcl
 system           3

[ atoms ]
;   nr  type  resi  res  atom  cgnr     charge      mass       ; qtot   bond_type
     1   sh     1   UNL    S1    1    -0.240700     32.06000 ; qtot -0.241
     2   ca     1   UNL    C1    2     0.019900     12.01000 ; qtot -0.221
     3   ca     1   UNL    C2    3    -0.129500     12.01000 ; qtot -0.350
     4   ca     1   UNL    C3    4    -0.092000     12.01000 ; qtot -0.442
     5   ca     1   UNL    C4    5    -0.049100     12.01000 ; qtot -0.491
     6   ss     1   UNL    S2    6    -0.084800     32.06000 ; qtot -0.576
     7   ca     1   UNL    C5    7    -0.028100     12.01000 ; qtot -0.604
     8   ca     1   UNL    C6    8    -0.114000     12.01000 ; qtot -0.718
     9   ca     1   UNL    C7    9    -0.106500     12.01000 ; qtot -0.825
    10   ca     1   UNL    C8   10    -0.036100     12.01000 ; qtot -0.861
    11   ss     1   UNL    S3   11    -0.086800     32.06000 ; qtot -0.948
    12   ca     1   UNL    C9   12    -0.036100     12.01000 ; qtot -0.984
    13   ca     1   UNL   C10   13    -0.106000     12.01000 ; qtot -1.090
    14   ca     1   UNL   C11   14    -0.113000     12.01000 ; qtot -1.203
    15   ca     1   UNL   C12   15    -0.029100     12.01000 ; qtot -1.232
    16   ss     1   UNL    S4   16    -0.085800     32.06000 ; qtot -1.318
    17   ca     1   UNL   C13   17    -0.042100     12.01000 ; qtot -1.360
    18   ca     1   UNL   C14   18    -0.101000     12.01000 ; qtot -1.461
    19   ca     1   UNL   C15   19    -0.118500     12.01000 ; qtot -1.579
    20   ca     1   UNL   C16   20    -0.021100     12.01000 ; qtot -1.600
    21   ss     1   UNL    S5   21    -0.090800     32.06000 ; qtot -1.691
    22   ca     1   UNL   C17   22    -0.040100     12.01000 ; qtot -1.731
    23   ca     1   UNL   C18   23    -0.107500     12.01000 ; qtot -1.839
    24   ca     1   UNL   C19   24    -0.127000     12.01000 ; qtot -1.966
    25   ca     1   UNL   C20   25    -0.120000     12.01000 ; qtot -2.086
    26   ca     1   UNL   C21   26    -0.127000     12.01000 ; qtot -2.213
    27   ca     1   UNL   C22   27    -0.107500     12.01000 ; qtot -2.320
    28   ca     1   UNL   C23   28    -0.118500     12.01000 ; qtot -2.439
    29   ca     1   UNL   C24   29    -0.101000     12.01000 ; qtot -2.540
    30   ca     1   UNL   C25   30    -0.113000     12.01000 ; qtot -2.653
    31   ca     1   UNL   C26   31    -0.106000     12.01000 ; qtot -2.759
    32   ca     1   UNL   C27   32    -0.106500     12.01000 ; qtot -2.865
    33   ca     1   UNL   C28   33    -0.114000     12.01000 ; qtot -2.979
    34   ca     1   UNL   C29   34    -0.092000     12.01000 ; qtot -3.071
    35   ca     1   UNL   C30   35    -0.129500     12.01000 ; qtot -3.201
    36   hs     1   UNL    H1   36     0.191800      1.00800 ; qtot -3.009
    37   ha     1   UNL    H2   37     0.141000      1.00800 ; qtot -2.868
    38   ha     1   UNL    H3   38     0.146000      1.00800 ; qtot -2.722
    39   ha     1   UNL    H4   39     0.145000      1.00800 ; qtot -2.577
    40   ha     1   UNL    H5   40     0.145000      1.00800 ; qtot -2.432
    41   ha     1   UNL    H6   41     0.145500      1.00800 ; qtot -2.287
    42   ha     1   UNL    H7   42     0.145500      1.00800 ; qtot -2.141
    43   ha     1   UNL    H8   43     0.145000      1.00800 ; qtot -1.996
    44   ha     1   UNL    H9   44     0.145000      1.00800 ; qtot -1.851
    45   ha     1   UNL   H10   45     0.143000      1.00800 ; qtot -1.708
    46   ha     1   UNL   H11   46     0.136000      1.00800 ; qtot -1.572
    47   ha     1   UNL   H12   47     0.135000      1.00800 ; qtot -1.437
    48   ha     1   UNL   H13   48     0.136000      1.00800 ; qtot -1.301
    49   ha     1   UNL   H14   49     0.143000      1.00800 ; qtot -1.158
    50   ha     1   UNL   H15   50     0.145000      1.00800 ; qtot -1.013
    51   ha     1   UNL   H16   51     0.145000      1.00800 ; qtot -0.868
    52   ha     1   UNL   H17   52     0.145500      1.00800 ; qtot -0.723
    53   ha     1   UNL   H18   53     0.145500      1.00800 ; qtot -0.577
    54   ha     1   UNL   H19   54     0.145000      1.00800 ; qtot -0.432
    55   ha     1   UNL   H20   55     0.145000      1.00800 ; qtot -0.287
    56   ha     1   UNL   H21   56     0.146000      1.00800 ; qtot -0.141
    57   ha     1   UNL   H22   57     0.141000      1.00800 ; qtot -0.000
    58   sh     2   UNL    S1   58    -0.240700     32.06000 ; qtot -0.241
    59   ca     2   UNL    C1   59     0.019900     12.01000 ; qtot -0.221
    60   ca     2   UNL    C2   60    -0.129500     12.01000 ; qtot -0.350
    61   ca     2   UNL    C3   61    -0.092000     12.01000 ; qtot -0.442
    62   ca     2   UNL    C4   62    -0.049100     12.01000 ; qtot -0.491
    63   ss     2   UNL    S2   63    -0.084800     32.06000 ; qtot -0.576
    64   ca     2   UNL    C5   64    -0.028100     12.01000 ; qtot -0.604
    65   ca     2   UNL    C6   65    -0.114000     12.01000 ; qtot -0.718
    66   ca     2   UNL    C7   66    -0.106500     12.01000 ; qtot -0.825
    67   ca     2   UNL    C8   67    -0.036100     12.01000 ; qtot -0.861
    68   ss     2   UNL    S3   68    -0.086800     32.06000 ; qtot -0.948
    69   ca     2   UNL    C9   69    -0.036100     12.01000 ; qtot -0.984
    70   ca     2   UNL   C10   70    -0.106000     12.01000 ; qtot -1.090
    71   ca     2   UNL   C11   71    -0.113000     12.01000 ; qtot -1.203
    72   ca     2   UNL   C12   72    -0.029100     12.01000 ; qtot -1.232
    73   ss     2   UNL    S4   73    -0.085800     32.06000 ; qtot -1.318
    74   ca     2   UNL   C13   74    -0.042100     12.01000 ; qtot -1.360
    75   ca     2   UNL   C14   75    -0.101000     12.01000 ; qtot -1.461
    76   ca     2   UNL   C15   76    -0.118500     12.01000 ; qtot -1.579
    77   ca     2   UNL   C16   77    -0.021100     12.01000 ; qtot -1.600
    78   ss     2   UNL    S5   78    -0.090800     32.06000 ; qtot -1.691
    79   ca     2   UNL   C17   79    -0.040100     12.01000 ; qtot -1.731
    80   ca     2   UNL   C18   80    -0.107500     12.01000 ; qtot -1.839
    81   ca     2   UNL   C19   81    -0.127000     12.01000 ; qtot -1.966
    82   ca     2   UNL   C20   82    -0.120000     12.01000 ; qtot -2.086
    83   ca     2   UNL   C21   83    -0.127000     12.01000 ; qtot -2.213
    84   ca     2   UNL   C22   84    -0.107500     12.01000 ; qtot -2.320
    85   ca     2   UNL   C23   85    -0.118500     12.01000 ; qtot -2.439
    86   ca     2   UNL   C24   86    -0.101000     12.01000 ; qtot -2.540
    87   ca     2   UNL   C25   87    -0.113000     12.01000 ; qtot -2.653
    88   ca     2   UNL   C26   88    -0.106000     12.01000 ; qtot -2.759
    89   ca     2   UNL   C27   89    -0.106500     12.01000 ; qtot -2.865
    90   ca     2   UNL   C28   90    -0.114000     12.01000 ; qtot -2.979
    91   ca     2   UNL   C29   91    -0.092000     12.01000 ; qtot -3.071
    92   ca     2   UNL   C30   92    -0.129500     12.01000 ; qtot -3.201
    93   hs     2   UNL    H1   93     0.191800      1.00800 ; qtot -3.009
    94   ha     2   UNL    H2   94     0.141000      1.00800 ; qtot -2.868
    95   ha     2   UNL    H3   95     0.146000      1.00800 ; qtot -2.722
    96   ha     2   UNL    H4   96     0.145000      1.00800 ; qtot -2.577
    97   ha     2   UNL    H5   97     0.145000      1.00800 ; qtot -2.432
    98   ha     2   UNL    H6   98     0.145500      1.00800 ; qtot -2.287
    99   ha     2   UNL    H7   99     0.145500      1.00800 ; qtot -2.141
   100   ha     2   UNL    H8  100     0.145000      1.00800 ; qtot -1.996
   101   ha     2   UNL    H9  101     0.145000      1.00800 ; qtot -1.851
   102   ha     2   UNL   H10  102     0.143000      1.00800 ; qtot -1.708
   103   ha     2   UNL   H11  103     0.136000      1.00800 ; qtot -1.572
   104   ha     2   UNL   H12  104     0.135000      1.00800 ; qtot -1.437
   105   ha     2   UNL   H13  105     0.136000      1.00800 ; qtot -1.301
   106   ha     2   UNL   H14  106     0.143000      1.00800 ; qtot -1.158
   107   ha     2   UNL   H15  107     0.145000      1.00800 ; qtot -1.013
   108   ha     2   UNL   H16  108     0.145000      1.00800 ; qtot -0.868
   109   ha     2   UNL   H17  109     0.145500      1.00800 ; qtot -0.723
   110   ha     2   UNL   H18  110     0.145500      1.00800 ; qtot -0.577
   111   ha     2   UNL   H19  111     0.145000      1.00800 ; qtot -0.432
   112   ha     2   UNL   H20  112     0.145000      1.00800 ; qtot -0.287
   113   ha     2   UNL   H21  113     0.146000      1.00800 ; qtot -0.141
   114   ha     2   UNL   H22  114     0.141000      1.00800 ; qtot -0.000
   115   sh     3   UNL    S1  115    -0.240700     32.06000 ; qtot -0.241
   116   ca     3   UNL    C1  116     0.019900     12.01000 ; qtot -0.221
   117   ca     3   UNL    C2  117    -0.129500     12.01000 ; qtot -0.350
   118   ca     3   UNL    C3  118    -0.092000     12.01000 ; qtot -0.442
   119   ca     3   UNL    C4  119    -0.049100     12.01000 ; qtot -0.491
   120   ss     3   UNL    S2  120    -0.084800     32.06000 ; qtot -0.576
   121   ca     3   UNL    C5  121    -0.028100     12.01000 ; qtot -0.604
   122   ca     3   UNL    C6  122    -0.114000     12.01000 ; qtot -0.718
   123   ca     3   UNL    C7  123    -0.106500     12.01000 ; qtot -0.825
   124   ca     3   UNL    C8  124    -0.036100     12.01000 ; qtot -0.861
   125   ss     3   UNL    S3  125    -0.086800     32.06000 ; qtot -0.948
   126   ca     3   UNL    C9  126    -0.036100     12.01000 ; qtot -0.984
   127   ca     3   UNL   C10  127    -0.106000     12.01000 ; qtot -1.090
   128   ca     3   UNL   C11  128    -0.113000     12.01000 ; qtot -1.203
   129   ca     3   UNL   C12  129    -0.029100     12.01000 ; qtot -1.232
   130   ss     3   UNL    S4  130    -0.085800     32.06000 ; qtot -1.318
   131   ca     3   UNL   C13  131    -0.042100     12.01000 ; qtot -1.360
   132   ca     3   UNL   C14  132    -0.101000     12.01000 ; qtot -1.461
   133   ca     3   UNL   C15  133    -0.118500     12.01000 ; qtot -1.579
   134   ca     3   UNL   C16  134    -0.021100     12.01000 ; qtot -1.600
   135   ss     3   UNL    S5  135    -0.090800     32.06000 ; qtot -1.691
   136   ca     3   UNL   C17  136    -0.040100     12.01000 ; qtot -1.731
   137   ca     3   UNL   C18  137    -0.107500     12.01000 ; qtot -1.839
   138   ca     3   UNL   C19  138    -0.127000     12.01000 ; qtot -1.966
   139   ca     3   UNL   C20  139    -0.120000     12.01000 ; qtot -2.086
   140   ca     3   UNL   C21  140    -0.127000     12.01000 ; qtot -2.213
   141   ca     3   UNL   C22  141    -0.107500     12.01000 ; qtot -2.320
   142   ca     3   UNL   C23  142    -0.118500     12.01000 ; qtot -2.439
   143   ca     3   UNL   C24  143    -0.101000     12.01000 ; qtot -2.540
   144   ca     3   UNL   C25  144    -0.113000     12.01000 ; qtot -2.653
   145   ca     3   UNL   C26  145    -0.106000     12.01000 ; qtot -2.759
   146   ca     3   UNL   C27  146    -0.106500     12.01000 ; qtot -2.865
   147   ca     3   UNL   C28  147    -0.114000     12.01000 ; qtot -2.979
   148   ca     3   UNL   C29  148    -0.092000     12.01000 ; qtot -3.071
   149   ca     3   UNL   C30  149    -0.129500     12.01000 ; qtot -3.201
   150   hs     3   UNL    H1  150     0.191800      1.00800 ; qtot -3.009
   151   ha     3   UNL    H2  151     0.141000      1.00800 ; qtot -2.868
   152   ha     3   UNL    H3  152     0.146000      1.00800 ; qtot -2.722
   153   ha     3   UNL    H4  153     0.145000      1.00800 ; qtot -2.577
   154   ha     3   UNL    H5  154     0.145000      1.00800 ; qtot -2.432
   155   ha     3   UNL    H6  155     0.145500      1.00800 ; qtot -2.287
   156   ha     3   UNL    H7  156     0.145500      1.00800 ; qtot -2.141
   157   ha     3   UNL    H8  157     0.145000      1.00800 ; qtot -1.996
   158   ha     3   UNL    H9  158     0.145000      1.00800 ; qtot -1.851
   159   ha     3   UNL   H10  159     0.143000      1.00800 ; qtot -1.708
   160   ha     3   UNL   H11  160     0.136000      1.00800 ; qtot -1.572
   161   ha     3   UNL   H12  161     0.135000      1.00800 ; qtot -1.437
   162   ha     3   UNL   H13  162     0.136000      1.00800 ; qtot -1.301
   163   ha     3   UNL   H14  163     0.143000      1.00800 ; qtot -1.158
   164   ha     3   UNL   H15  164     0.145000      1.00800 ; qtot -1.013
   165   ha     3   UNL   H16  165     0.145000      1.00800 ; qtot -0.868
   166   ha     3   UNL   H17  166     0.145500      1.00800 ; qtot -0.723
   167   ha     3   UNL   H18  167     0.145500      1.00800 ; qtot -0.577
   168   ha     3   UNL   H19  168     0.145000      1.00800 ; qtot -0.432
   169   ha     3   UNL   H20  169     0.145000      1.00800 ; qtot -0.287
   170   ha     3   UNL   H21  170     0.146000      1.00800 ; qtot -0.141
   171   ha     3   UNL   H22  171     0.141000      1.00800 ; qtot -0.000
   172   sh     4   UNL    S1  172    -0.240700     32.06000 ; qtot -0.241
   173   ca     4   UNL    C1  173     0.019900     12.01000 ; qtot -0.221
   174   ca     4   UNL    C2  174    -0.129500     12.01000 ; qtot -0.350
   175   ca     4   UNL    C3  175    -0.092000     12.01000 ; qtot -0.442
   176   ca     4   UNL    C4  176    -0.049100     12.01000 ; qtot -0.491
   177   ss     4   UNL    S2  177    -0.084800     32.06000 ; qtot -0.576
   178   ca     4   UNL    C5  178    -0.028100     12.01000 ; qtot -0.604
   179   ca     4   UNL    C6  179    -0.114000     12.01000 ; qtot -0.718
   180   ca     4   UNL    C7  180    -0.106500     12.01000 ; qtot -0.825
   181   ca     4   UNL    C8  181    -0.036100     12.01000 ; qtot -0.861
   182   ss     4   UNL    S3  182    -0.086800     32.06000 ; qtot -0.948
   183   ca     4   UNL    C9  183    -0.036100     12.01000 ; qtot -0.984
   184   ca     4   UNL   C10  184    -0.106000     12.01000 ; qtot -1.090
   185   ca     4   UNL   C11  185    -0.113000     12.01000 ; qtot -1.203
   186   ca     4   UNL   C12  186    -0.029100     12.01000 ; qtot -1.232
   187   ss     4   UNL    S4  187    -0.085800     32.06000 ; qtot -1.318
   188   ca     4   UNL   C13  188    -0.042100     12.01000 ; qtot -1.360
   189   ca     4   UNL   C14  189    -0.101000     12.01000 ; qtot -1.461
   190   ca     4   UNL   C15  190    -0.118500     12.01000 ; qtot -1.579
   191   ca     4   UNL   C16  191    -0.021100     12.01000 ; qtot -1.600
   192   ss     4   UNL    S5  192    -0.090800     32.06000 ; qtot -1.691
   193   ca     4   UNL   C17  193    -0.040100     12.01000 ; qtot -1.731
   194   ca     4   UNL   C18  194    -0.107500     12.01000 ; qtot -1.839
   195   ca     4   UNL   C19  195    -0.127000     12.01000 ; qtot -1.966
   196   ca     4   UNL   C20  196    -0.120000     12.01000 ; qtot -2.086
   197   ca     4   UNL   C21  197    -0.127000     12.01000 ; qtot -2.213
   198   ca     4   UNL   C22  198    -0.107500     12.01000 ; qtot -2.320
   199   ca     4   UNL   C23  199    -0.118500     12.01000 ; qtot -2.439
   200   ca     4   UNL   C24  200    -0.101000     12.01000 ; qtot -2.540
   201   ca     4   UNL   C25  201    -0.113000     12.01000 ; qtot -2.653
   202   ca     4   UNL   C26  202    -0.106000     12.01000 ; qtot -2.759
   203   ca     4   UNL   C27  203    -0.106500     12.01000 ; qtot -2.865
   204   ca     4   UNL   C28  204    -0.114000     12.01000 ; qtot -2.979
   205   ca     4   UNL   C29  205    -0.092000     12.01000 ; qtot -3.071
   206   ca     4   UNL   C30  206    -0.129500     12.01000 ; qtot -3.201
   207   hs     4   UNL    H1  207     0.191800      1.00800 ; qtot -3.009
   208   ha     4   UNL    H2  208     0.141000      1.00800 ; qtot -2.868
   209   ha     4   UNL    H3  209     0.146000      1.00800 ; qtot -2.722
   210   ha     4   UNL    H4  210     0.145000      1.00800 ; qtot -2.577
   211   ha     4   UNL    H5  211     0.145000      1.00800 ; qtot -2.432
   212   ha     4   UNL    H6  212     0.145500      1.00800 ; qtot -2.287
   213   ha     4   UNL    H7  213     0.145500      1.00800 ; qtot -2.141
   214   ha     4   UNL    H8  214     0.145000      1.00800 ; qtot -1.996
   215   ha     4   UNL    H9  215     0.145000      1.00800 ; qtot -1.851
   216   ha     4   UNL   H10  216     0.143000      1.00800 ; qtot -1.708
   217   ha     4   UNL   H11  217     0.136000      1.00800 ; qtot -1.572
   218   ha     4   UNL   H12  218     0.135000      1.00800 ; qtot -1.437
   219   ha     4   UNL   H13  219     0.136000      1.00800 ; qtot -1.301
   220   ha     4   UNL   H14  220     0.143000      1.00800 ; qtot -1.158
   221   ha     4   UNL   H15  221     0.145000      1.00800 ; qtot -1.013
   222   ha     4   UNL   H16  222     0.145000      1.00800 ; qtot -0.868
   223   ha     4   UNL   H17  223     0.145500      1.00800 ; qtot -0.723
   224   ha     4   UNL   H18  224     0.145500      1.00800 ; qtot -0.577
   225   ha     4   UNL   H19  225     0.145000      1.00800 ; qtot -0.432
   226   ha     4   UNL   H20  226     0.145000      1.00800 ; qtot -0.287
   227   ha     4   UNL   H21  227     0.146000      1.00800 ; qtot -0.141
   228   ha     4   UNL   H22  228     0.141000      1.00800 ; qtot -0.000
   229   sh     5   UNL    S1  229    -0.240700     32.06000 ; qtot -0.241
   230   ca     5   UNL    C1  230     0.019900     12.01000 ; qtot -0.221
   231   ca     5   UNL    C2  231    -0.129500     12.01000 ; qtot -0.350
   232   ca     5   UNL    C3  232    -0.092000     12.01000 ; qtot -0.442
   233   ca     5   UNL    C4  233    -0.049100     12.01000 ; qtot -0.491
   234   ss     5   UNL    S2  234    -0.084800     32.06000 ; qtot -0.576
   235   ca     5   UNL    C5  235    -0.028100     12.01000 ; qtot -0.604
   236   ca     5   UNL    C6  236    -0.114000     12.01000 ; qtot -0.718
   237   ca     5   UNL    C7  237    -0.106500     12.01000 ; qtot -0.825
   238   ca     5   UNL    C8  238    -0.036100     12.01000 ; qtot -0.861
   239   ss     5   UNL    S3  239    -0.086800     32.06000 ; qtot -0.948
   240   ca     5   UNL    C9  240    -0.036100     12.01000 ; qtot -0.984
   241   ca     5   UNL   C10  241    -0.106000     12.01000 ; qtot -1.090
   242   ca     5   UNL   C11  242    -0.113000     12.01000 ; qtot -1.203
   243   ca     5   UNL   C12  243    -0.029100     12.01000 ; qtot -1.232
   244   ss     5   UNL    S4  244    -0.085800     32.06000 ; qtot -1.318
   245   ca     5   UNL   C13  245    -0.042100     12.01000 ; qtot -1.360
   246   ca     5   UNL   C14  246    -0.101000     12.01000 ; qtot -1.461
   247   ca     5   UNL   C15  247    -0.118500     12.01000 ; qtot -1.579
   248   ca     5   UNL   C16  248    -0.021100     12.01000 ; qtot -1.600
   249   ss     5   UNL    S5  249    -0.090800     32.06000 ; qtot -1.691
   250   ca     5   UNL   C17  250    -0.040100     12.01000 ; qtot -1.731
   251   ca     5   UNL   C18  251    -0.107500     12.01000 ; qtot -1.839
   252   ca     5   UNL   C19  252    -0.127000     12.01000 ; qtot -1.966
   253   ca     5   UNL   C20  253    -0.120000     12.01000 ; qtot -2.086
   254   ca     5   UNL   C21  254    -0.127000     12.01000 ; qtot -2.213
   255   ca     5   UNL   C22  255    -0.107500     12.01000 ; qtot -2.320
   256   ca     5   UNL   C23  256    -0.118500     12.01000 ; qtot -2.439
   257   ca     5   UNL   C24  257    -0.101000     12.01000 ; qtot -2.540
   258   ca     5   UNL   C25  258    -0.113000     12.01000 ; qtot -2.653
   259   ca     5   UNL   C26  259    -0.106000     12.01000 ; qtot -2.759
   260   ca     5   UNL   C27  260    -0.106500     12.01000 ; qtot -2.865
   261   ca     5   UNL   C28  261    -0.114000     12.01000 ; qtot -2.979
   262   ca     5   UNL   C29  262    -0.092000     12.01000 ; qtot -3.071
   263   ca     5   UNL   C30  263    -0.129500     12.01000 ; qtot -3.201
   264   hs     5   UNL    H1  264     0.191800      1.00800 ; qtot -3.009
   265   ha     5   UNL    H2  265     0.141000      1.00800 ; qtot -2.868
   266   ha     5   UNL    H3  266     0.146000      1.00800 ; qtot -2.722
   267   ha     5   UNL    H4  267     0.145000      1.00800 ; qtot -2.577
   268   ha     5   UNL    H5  268     0.145000      1.00800 ; qtot -2.432
   269   ha     5   UNL    H6  269     0.145500      1.00800 ; qtot -2.287
   270   ha     5   UNL    H7  270     0.145500      1.00800 ; qtot -2.141
   271   ha     5   UNL    H8  271     0.145000      1.00800 ; qtot -1.996
   272   ha     5   UNL    H9  272     0.145000      1.00800 ; qtot -1.851
   273   ha     5   UNL   H10  273     0.143000      1.00800 ; qtot -1.708
   274   ha     5   UNL   H11  274     0.136000      1.00800 ; qtot -1.572
   275   ha     5   UNL   H12  275     0.135000      1.00800 ; qtot -1.437
   276   ha     5   UNL   H13  276     0.136000      1.00800 ; qtot -1.301
   277   ha     5   UNL   H14  277     0.143000      1.00800 ; qtot -1.158
   278   ha     5   UNL   H15  278     0.145000      1.00800 ; qtot -1.013
   279   ha     5   UNL   H16  279     0.145000      1.00800 ; qtot -0.868
   280   ha     5   UNL   H17  280     0.145500      1.00800 ; qtot -0.723
   281   ha     5   UNL   H18  281     0.145500      1.00800 ; qtot -0.577
   282   ha     5   UNL   H19  282     0.145000      1.00800 ; qtot -0.432
   283   ha     5   UNL   H20  283     0.145000      1.00800 ; qtot -0.287
   284   ha     5   UNL   H21  284     0.146000      1.00800 ; qtot -0.141
   285   ha     5   UNL   H22  285     0.141000      1.00800 ; qtot -0.000
   286   sh     6   UNL    S1  286    -0.240700     32.06000 ; qtot -0.241
   287   ca     6   UNL    C1  287     0.019900     12.01000 ; qtot -0.221
   288   ca     6   UNL    C2  288    -0.129500     12.01000 ; qtot -0.350
   289   ca     6   UNL    C3  289    -0.092000     12.01000 ; qtot -0.442
   290   ca     6   UNL    C4  290    -0.049100     12.01000 ; qtot -0.491
   291   ss     6   UNL    S2  291    -0.084800     32.06000 ; qtot -0.576
   292   ca     6   UNL    C5  292    -0.028100     12.01000 ; qtot -0.604
   293   ca     6   UNL    C6  293    -0.114000     12.01000 ; qtot -0.718
   294   ca     6   UNL    C7  294    -0.106500     12.01000 ; qtot -0.825
   295   ca     6   UNL    C8  295    -0.036100     12.01000 ; qtot -0.861
   296   ss     6   UNL    S3  296    -0.086800     32.06000 ; qtot -0.948
   297   ca     6   UNL    C9  297    -0.036100     12.01000 ; qtot -0.984
   298   ca     6   UNL   C10  298    -0.106000     12.01000 ; qtot -1.090
   299   ca     6   UNL   C11  299    -0.113000     12.01000 ; qtot -1.203
   300   ca     6   UNL   C12  300    -0.029100     12.01000 ; qtot -1.232
   301   ss     6   UNL    S4  301    -0.085800     32.06000 ; qtot -1.318
   302   ca     6   UNL   C13  302    -0.042100     12.01000 ; qtot -1.360
   303   ca     6   UNL   C14  303    -0.101000     12.01000 ; qtot -1.461
   304   ca     6   UNL   C15  304    -0.118500     12.01000 ; qtot -1.579
   305   ca     6   UNL   C16  305    -0.021100     12.01000 ; qtot -1.600
   306   ss     6   UNL    S5  306    -0.090800     32.06000 ; qtot -1.691
   307   ca     6   UNL   C17  307    -0.040100     12.01000 ; qtot -1.731
   308   ca     6   UNL   C18  308    -0.107500     12.01000 ; qtot -1.839
   309   ca     6   UNL   C19  309    -0.127000     12.01000 ; qtot -1.966
   310   ca     6   UNL   C20  310    -0.120000     12.01000 ; qtot -2.086
   311   ca     6   UNL   C21  311    -0.127000     12.01000 ; qtot -2.213
   312   ca     6   UNL   C22  312    -0.107500     12.01000 ; qtot -2.320
   313   ca     6   UNL   C23  313    -0.118500     12.01000 ; qtot -2.439
   314   ca     6   UNL   C24  314    -0.101000     12.01000 ; qtot -2.540
   315   ca     6   UNL   C25  315    -0.113000     12.01000 ; qtot -2.653
   316   ca     6   UNL   C26  316    -0.106000     12.01000 ; qtot -2.759
   317   ca     6   UNL   C27  317    -0.106500     12.01000 ; qtot -2.865
   318   ca     6   UNL   C28  318    -0.114000     12.01000 ; qtot -2.979
   319   ca     6   UNL   C29  319    -0.092000     12.01000 ; qtot -3.071
   320   ca     6   UNL   C30  320    -0.129500     12.01000 ; qtot -3.201
   321   hs     6   UNL    H1  321     0.191800      1.00800 ; qtot -3.009
   322   ha     6   UNL    H2  322     0.141000      1.00800 ; qtot -2.868
   323   ha     6   UNL    H3  323     0.146000      1.00800 ; qtot -2.722
   324   ha     6   UNL    H4  324     0.145000      1.00800 ; qtot -2.577
   325   ha     6   UNL    H5  325     0.145000      1.00800 ; qtot -2.432
   326   ha     6   UNL    H6  326     0.145500      1.00800 ; qtot -2.287
   327   ha     6   UNL    H7  327     0.145500      1.00800 ; qtot -2.141
   328   ha     6   UNL    H8  328     0.145000      1.00800 ; qtot -1.996
   329   ha     6   UNL    H9  329     0.145000      1.00800 ; qtot -1.851
   330   ha     6   UNL   H10  330     0.143000      1.00800 ; qtot -1.708
   331   ha     6   UNL   H11  331     0.136000      1.00800 ; qtot -1.572
   332   ha     6   UNL   H12  332     0.135000      1.00800 ; qtot -1.437
   333   ha     6   UNL   H13  333     0.136000      1.00800 ; qtot -1.301
   334   ha     6   UNL   H14  334     0.143000      1.00800 ; qtot -1.158
   335   ha     6   UNL   H15  335     0.145000      1.00800 ; qtot -1.013
   336   ha     6   UNL   H16  336     0.145000      1.00800 ; qtot -0.868
   337   ha     6   UNL   H17  337     0.145500      1.00800 ; qtot -0.723
   338   ha     6   UNL   H18  338     0.145500      1.00800 ; qtot -0.577
   339   ha     6   UNL   H19  339     0.145000      1.00800 ; qtot -0.432
   340   ha     6   UNL   H20  340     0.145000      1.00800 ; qtot -0.287
   341   ha     6   UNL   H21  341     0.146000      1.00800 ; qtot -0.141
   342   ha     6   UNL   H22  342     0.141000      1.00800 ; qtot -0.000
   343   sh     7   UNL    S1  343    -0.240700     32.06000 ; qtot -0.241
   344   ca     7   UNL    C1  344     0.019900     12.01000 ; qtot -0.221
   345   ca     7   UNL    C2  345    -0.129500     12.01000 ; qtot -0.350
   346   ca     7   UNL    C3  346    -0.092000     12.01000 ; qtot -0.442
   347   ca     7   UNL    C4  347    -0.049100     12.01000 ; qtot -0.491
   348   ss     7   UNL    S2  348    -0.084800     32.06000 ; qtot -0.576
   349   ca     7   UNL    C5  349    -0.028100     12.01000 ; qtot -0.604
   350   ca     7   UNL    C6  350    -0.114000     12.01000 ; qtot -0.718
   351   ca     7   UNL    C7  351    -0.106500     12.01000 ; qtot -0.825
   352   ca     7   UNL    C8  352    -0.036100     12.01000 ; qtot -0.861
   353   ss     7   UNL    S3  353    -0.086800     32.06000 ; qtot -0.948
   354   ca     7   UNL    C9  354    -0.036100     12.01000 ; qtot -0.984
   355   ca     7   UNL   C10  355    -0.106000     12.01000 ; qtot -1.090
   356   ca     7   UNL   C11  356    -0.113000     12.01000 ; qtot -1.203
   357   ca     7   UNL   C12  357    -0.029100     12.01000 ; qtot -1.232
   358   ss     7   UNL    S4  358    -0.085800     32.06000 ; qtot -1.318
   359   ca     7   UNL   C13  359    -0.042100     12.01000 ; qtot -1.360
   360   ca     7   UNL   C14  360    -0.101000     12.01000 ; qtot -1.461
   361   ca     7   UNL   C15  361    -0.118500     12.01000 ; qtot -1.579
   362   ca     7   UNL   C16  362    -0.021100     12.01000 ; qtot -1.600
   363   ss     7   UNL    S5  363    -0.090800     32.06000 ; qtot -1.691
   364   ca     7   UNL   C17  364    -0.040100     12.01000 ; qtot -1.731
   365   ca     7   UNL   C18  365    -0.107500     12.01000 ; qtot -1.839
   366   ca     7   UNL   C19  366    -0.127000     12.01000 ; qtot -1.966
   367   ca     7   UNL   C20  367    -0.120000     12.01000 ; qtot -2.086
   368   ca     7   UNL   C21  368    -0.127000     12.01000 ; qtot -2.213
   369   ca     7   UNL   C22  369    -0.107500     12.01000 ; qtot -2.320
   370   ca     7   UNL   C23  370    -0.118500     12.01000 ; qtot -2.439
   371   ca     7   UNL   C24  371    -0.101000     12.01000 ; qtot -2.540
   372   ca     7   UNL   C25  372    -0.113000     12.01000 ; qtot -2.653
   373   ca     7   UNL   C26  373    -0.106000     12.01000 ; qtot -2.759
   374   ca     7   UNL   C27  374    -0.106500     12.01000 ; qtot -2.865
   375   ca     7   UNL   C28  375    -0.114000     12.01000 ; qtot -2.979
   376   ca     7   UNL   C29  376    -0.092000     12.01000 ; qtot -3.071
   377   ca     7   UNL   C30  377    -0.129500     12.01000 ; qtot -3.201
   378   hs     7   UNL    H1  378     0.191800      1.00800 ; qtot -3.009
   379   ha     7   UNL    H2  379     0.141000      1.00800 ; qtot -2.868
   380   ha     7   UNL    H3  380     0.146000      1.00800 ; qtot -2.722
   381   ha     7   UNL    H4  381     0.145000      1.00800 ; qtot -2.577
   382   ha     7   UNL    H5  382     0.145000      1.00800 ; qtot -2.432
   383   ha     7   UNL    H6  383     0.145500      1.00800 ; qtot -2.287
   384   ha     7   UNL    H7  384     0.145500      1.00800 ; qtot -2.141
   385   ha     7   UNL    H8  385     0.145000      1.00800 ; qtot -1.996
   386   ha     7   UNL    H9  386     0.145000      1.00800 ; qtot -1.851
   387   ha     7   UNL   H10  387     0.143000      1.00800 ; qtot -1.708
   388   ha     7   UNL   H11  388     0.136000      1.00800 ; qtot -1.572
   389   ha     7   UNL   H12  389     0.135000      1.00800 ; qtot -1.437
   390   ha     7   UNL   H13  390     0.136000      1.00800 ; qtot -1.301
   391   ha     7   UNL   H14  391     0.143000      1.00800 ; qtot -1.158
   392   ha     7   UNL   H15  392     0.145000      1.00800 ; qtot -1.013
   393   ha     7   UNL   H16  393     0.145000      1.00800 ; qtot -0.868
   394   ha     7   UNL   H17  394     0.145500      1.00800 ; qtot -0.723
   395   ha     7   UNL   H18  395     0.145500      1.00800 ; qtot -0.577
   396   ha     7   UNL   H19  396     0.145000      1.00800 ; qtot -0.432
   397   ha     7   UNL   H20  397     0.145000      1.00800 ; qtot -0.287
   398   ha     7   UNL   H21  398     0.146000      1.00800 ; qtot -0.141
   399   ha     7   UNL   H22  399     0.141000      1.00800 ; qtot -0.000
   400   sh     8   UNL    S1  400    -0.240700     32.06000 ; qtot -0.241
   401   ca     8   UNL    C1  401     0.019900     12.01000 ; qtot -0.221
   402   ca     8   UNL    C2  402    -0.129500     12.01000 ; qtot -0.350
   403   ca     8   UNL    C3  403    -0.092000     12.01000 ; qtot -0.442
   404   ca     8   UNL    C4  404    -0.049100     12.01000 ; qtot -0.491
   405   ss     8   UNL    S2  405    -0.084800     32.06000 ; qtot -0.576
   406   ca     8   UNL    C5  406    -0.028100     12.01000 ; qtot -0.604
   407   ca     8   UNL    C6  407    -0.114000     12.01000 ; qtot -0.718
   408   ca     8   UNL    C7  408    -0.106500     12.01000 ; qtot -0.825
   409   ca     8   UNL    C8  409    -0.036100     12.01000 ; qtot -0.861
   410   ss     8   UNL    S3  410    -0.086800     32.06000 ; qtot -0.948
   411   ca     8   UNL    C9  411    -0.036100     12.01000 ; qtot -0.984
   412   ca     8   UNL   C10  412    -0.106000     12.01000 ; qtot -1.090
   413   ca     8   UNL   C11  413    -0.113000     12.01000 ; qtot -1.203
   414   ca     8   UNL   C12  414    -0.029100     12.01000 ; qtot -1.232
   415   ss     8   UNL    S4  415    -0.085800     32.06000 ; qtot -1.318
   416   ca     8   UNL   C13  416    -0.042100     12.01000 ; qtot -1.360
   417   ca     8   UNL   C14  417    -0.101000     12.01000 ; qtot -1.461
   418   ca     8   UNL   C15  418    -0.118500     12.01000 ; qtot -1.579
   419   ca     8   UNL   C16  419    -0.021100     12.01000 ; qtot -1.600
   420   ss     8   UNL    S5  420    -0.090800     32.06000 ; qtot -1.691
   421   ca     8   UNL   C17  421    -0.040100     12.01000 ; qtot -1.731
   422   ca     8   UNL   C18  422    -0.107500     12.01000 ; qtot -1.839
   423   ca     8   UNL   C19  423    -0.127000     12.01000 ; qtot -1.966
   424   ca     8   UNL   C20  424    -0.120000     12.01000 ; qtot -2.086
   425   ca     8   UNL   C21  425    -0.127000     12.01000 ; qtot -2.213
   426   ca     8   UNL   C22  426    -0.107500     12.01000 ; qtot -2.320
   427   ca     8   UNL   C23  427    -0.118500     12.01000 ; qtot -2.439
   428   ca     8   UNL   C24  428    -0.101000     12.01000 ; qtot -2.540
   429   ca     8   UNL   C25  429    -0.113000     12.01000 ; qtot -2.653
   430   ca     8   UNL   C26  430    -0.106000     12.01000 ; qtot -2.759
   431   ca     8   UNL   C27  431    -0.106500     12.01000 ; qtot -2.865
   432   ca     8   UNL   C28  432    -0.114000     12.01000 ; qtot -2.979
   433   ca     8   UNL   C29  433    -0.092000     12.01000 ; qtot -3.071
   434   ca     8   UNL   C30  434    -0.129500     12.01000 ; qtot -3.201
   435   hs     8   UNL    H1  435     0.191800      1.00800 ; qtot -3.009
   436   ha     8   UNL    H2  436     0.141000      1.00800 ; qtot -2.868
   437   ha     8   UNL    H3  437     0.146000      1.00800 ; qtot -2.722
   438   ha     8   UNL    H4  438     0.145000      1.00800 ; qtot -2.577
   439   ha     8   UNL    H5  439     0.145000      1.00800 ; qtot -2.432
   440   ha     8   UNL    H6  440     0.145500      1.00800 ; qtot -2.287
   441   ha     8   UNL    H7  441     0.145500      1.00800 ; qtot -2.141
   442   ha     8   UNL    H8  442     0.145000      1.00800 ; qtot -1.996
   443   ha     8   UNL    H9  443     0.145000      1.00800 ; qtot -1.851
   444   ha     8   UNL   H10  444     0.143000      1.00800 ; qtot -1.708
   445   ha     8   UNL   H11  445     0.136000      1.00800 ; qtot -1.572
   446   ha     8   UNL   H12  446     0.135000      1.00800 ; qtot -1.437
   447   ha     8   UNL   H13  447     0.136000      1.00800 ; qtot -1.301
   448   ha     8   UNL   H14  448     0.143000      1.00800 ; qtot -1.158
   449   ha     8   UNL   H15  449     0.145000      1.00800 ; qtot -1.013
   450   ha     8   UNL   H16  450     0.145000      1.00800 ; qtot -0.868
   451   ha     8   UNL   H17  451     0.145500      1.00800 ; qtot -0.723
   452   ha     8   UNL   H18  452     0.145500      1.00800 ; qtot -0.577
   453   ha     8   UNL   H19  453     0.145000      1.00800 ; qtot -0.432
   454   ha     8   UNL   H20  454     0.145000      1.00800 ; qtot -0.287
   455   ha     8   UNL   H21  455     0.146000      1.00800 ; qtot -0.141
   456   ha     8   UNL   H22  456     0.141000      1.00800 ; qtot -0.000
   457   sh     9   UNL    S1  457    -0.240700     32.06000 ; qtot -0.241
   458   ca     9   UNL    C1  458     0.019900     12.01000 ; qtot -0.221
   459   ca     9   UNL    C2  459    -0.129500     12.01000 ; qtot -0.350
   460   ca     9   UNL    C3  460    -0.092000     12.01000 ; qtot -0.442
   461   ca     9   UNL    C4  461    -0.049100     12.01000 ; qtot -0.491
   462   ss     9   UNL    S2  462    -0.084800     32.06000 ; qtot -0.576
   463   ca     9   UNL    C5  463    -0.028100     12.01000 ; qtot -0.604
   464   ca     9   UNL    C6  464    -0.114000     12.01000 ; qtot -0.718
   465   ca     9   UNL    C7  465    -0.106500     12.01000 ; qtot -0.825
   466   ca     9   UNL    C8  466    -0.036100     12.01000 ; qtot -0.861
   467   ss     9   UNL    S3  467    -0.086800     32.06000 ; qtot -0.948
   468   ca     9   UNL    C9  468    -0.036100     12.01000 ; qtot -0.984
   469   ca     9   UNL   C10  469    -0.106000     12.01000 ; qtot -1.090
   470   ca     9   UNL   C11  470    -0.113000     12.01000 ; qtot -1.203
   471   ca     9   UNL   C12  471    -0.029100     12.01000 ; qtot -1.232
   472   ss     9   UNL    S4  472    -0.085800     32.06000 ; qtot -1.318
   473   ca     9   UNL   C13  473    -0.042100     12.01000 ; qtot -1.360
   474   ca     9   UNL   C14  474    -0.101000     12.01000 ; qtot -1.461
   475   ca     9   UNL   C15  475    -0.118500     12.01000 ; qtot -1.579
   476   ca     9   UNL   C16  476    -0.021100     12.01000 ; qtot -1.600
   477   ss     9   UNL    S5  477    -0.090800     32.06000 ; qtot -1.691
   478   ca     9   UNL   C17  478    -0.040100     12.01000 ; qtot -1.731
   479   ca     9   UNL   C18  479    -0.107500     12.01000 ; qtot -1.839
   480   ca     9   UNL   C19  480    -0.127000     12.01000 ; qtot -1.966
   481   ca     9   UNL   C20  481    -0.120000     12.01000 ; qtot -2.086
   482   ca     9   UNL   C21  482    -0.127000     12.01000 ; qtot -2.213
   483   ca     9   UNL   C22  483    -0.107500     12.01000 ; qtot -2.320
   484   ca     9   UNL   C23  484    -0.118500     12.01000 ; qtot -2.439
   485   ca     9   UNL   C24  485    -0.101000     12.01000 ; qtot -2.540
   486   ca     9   UNL   C25  486    -0.113000     12.01000 ; qtot -2.653
   487   ca     9   UNL   C26  487    -0.106000     12.01000 ; qtot -2.759
   488   ca     9   UNL   C27  488    -0.106500     12.01000 ; qtot -2.865
   489   ca     9   UNL   C28  489    -0.114000     12.01000 ; qtot -2.979
   490   ca     9   UNL   C29  490    -0.092000     12.01000 ; qtot -3.071
   491   ca     9   UNL   C30  491    -0.129500     12.01000 ; qtot -3.201
   492   hs     9   UNL    H1  492     0.191800      1.00800 ; qtot -3.009
   493   ha     9   UNL    H2  493     0.141000      1.00800 ; qtot -2.868
   494   ha     9   UNL    H3  494     0.146000      1.00800 ; qtot -2.722
   495   ha     9   UNL    H4  495     0.145000      1.00800 ; qtot -2.577
   496   ha     9   UNL    H5  496     0.145000      1.00800 ; qtot -2.432
   497   ha     9   UNL    H6  497     0.145500      1.00800 ; qtot -2.287
   498   ha     9   UNL    H7  498     0.145500      1.00800 ; qtot -2.141
   499   ha     9   UNL    H8  499     0.145000      1.00800 ; qtot -1.996
   500   ha     9   UNL    H9  500     0.145000      1.00800 ; qtot -1.851
   501   ha     9   UNL   H10  501     0.143000      1.00800 ; qtot -1.708
   502   ha     9   UNL   H11  502     0.136000      1.00800 ; qtot -1.572
   503   ha     9   UNL   H12  503     0.135000      1.00800 ; qtot -1.437
   504   ha     9   UNL   H13  504     0.136000      1.00800 ; qtot -1.301
   505   ha     9   UNL   H14  505     0.143000      1.00800 ; qtot -1.158
   506   ha     9   UNL   H15  506     0.145000      1.00800 ; qtot -1.013
   507   ha     9   UNL   H16  507     0.145000      1.00800 ; qtot -0.868
   508   ha     9   UNL   H17  508     0.145500      1.00800 ; qtot -0.723
   509   ha     9   UNL   H18  509     0.145500      1.00800 ; qtot -0.577
   510   ha     9   UNL   H19  510     0.145000      1.00800 ; qtot -0.432
   511   ha     9   UNL   H20  511     0.145000      1.00800 ; qtot -0.287
   512   ha     9   UNL   H21  512     0.146000      1.00800 ; qtot -0.141
   513   ha     9   UNL   H22  513     0.141000      1.00800 ; qtot -0.000
   514   sh    10   UNL    S1  514    -0.240700     32.06000 ; qtot -0.241
   515   ca    10   UNL    C1  515     0.019900     12.01000 ; qtot -0.221
   516   ca    10   UNL    C2  516    -0.129500     12.01000 ; qtot -0.350
   517   ca    10   UNL    C3  517    -0.092000     12.01000 ; qtot -0.442
   518   ca    10   UNL    C4  518    -0.049100     12.01000 ; qtot -0.491
   519   ss    10   UNL    S2  519    -0.084800     32.06000 ; qtot -0.576
   520   ca    10   UNL    C5  520    -0.028100     12.01000 ; qtot -0.604
   521   ca    10   UNL    C6  521    -0.114000     12.01000 ; qtot -0.718
   522   ca    10   UNL    C7  522    -0.106500     12.01000 ; qtot -0.825
   523   ca    10   UNL    C8  523    -0.036100     12.01000 ; qtot -0.861
   524   ss    10   UNL    S3  524    -0.086800     32.06000 ; qtot -0.948
   525   ca    10   UNL    C9  525    -0.036100     12.01000 ; qtot -0.984
   526   ca    10   UNL   C10  526    -0.106000     12.01000 ; qtot -1.090
   527   ca    10   UNL   C11  527    -0.113000     12.01000 ; qtot -1.203
   528   ca    10   UNL   C12  528    -0.029100     12.01000 ; qtot -1.232
   529   ss    10   UNL    S4  529    -0.085800     32.06000 ; qtot -1.318
   530   ca    10   UNL   C13  530    -0.042100     12.01000 ; qtot -1.360
   531   ca    10   UNL   C14  531    -0.101000     12.01000 ; qtot -1.461
   532   ca    10   UNL   C15  532    -0.118500     12.01000 ; qtot -1.579
   533   ca    10   UNL   C16  533    -0.021100     12.01000 ; qtot -1.600
   534   ss    10   UNL    S5  534    -0.090800     32.06000 ; qtot -1.691
   535   ca    10   UNL   C17  535    -0.040100     12.01000 ; qtot -1.731
   536   ca    10   UNL   C18  536    -0.107500     12.01000 ; qtot -1.839
   537   ca    10   UNL   C19  537    -0.127000     12.01000 ; qtot -1.966
   538   ca    10   UNL   C20  538    -0.120000     12.01000 ; qtot -2.086
   539   ca    10   UNL   C21  539    -0.127000     12.01000 ; qtot -2.213
   540   ca    10   UNL   C22  540    -0.107500     12.01000 ; qtot -2.320
   541   ca    10   UNL   C23  541    -0.118500     12.01000 ; qtot -2.439
   542   ca    10   UNL   C24  542    -0.101000     12.01000 ; qtot -2.540
   543   ca    10   UNL   C25  543    -0.113000     12.01000 ; qtot -2.653
   544   ca    10   UNL   C26  544    -0.106000     12.01000 ; qtot -2.759
   545   ca    10   UNL   C27  545    -0.106500     12.01000 ; qtot -2.865
   546   ca    10   UNL   C28  546    -0.114000     12.01000 ; qtot -2.979
   547   ca    10   UNL   C29  547    -0.092000     12.01000 ; qtot -3.071
   548   ca    10   UNL   C30  548    -0.129500     12.01000 ; qtot -3.201
   549   hs    10   UNL    H1  549     0.191800      1.00800 ; qtot -3.009
   550   ha    10   UNL    H2  550     0.141000      1.00800 ; qtot -2.868
   551   ha    10   UNL    H3  551     0.146000      1.00800 ; qtot -2.722
   552   ha    10   UNL    H4  552     0.145000      1.00800 ; qtot -2.577
   553   ha    10   UNL    H5  553     0.145000      1.00800 ; qtot -2.432
   554   ha    10   UNL    H6  554     0.145500      1.00800 ; qtot -2.287
   555   ha    10   UNL    H7  555     0.145500      1.00800 ; qtot -2.141
   556   ha    10   UNL    H8  556     0.145000      1.00800 ; qtot -1.996
   557   ha    10   UNL    H9  557     0.145000      1.00800 ; qtot -1.851
   558   ha    10   UNL   H10  558     0.143000      1.00800 ; qtot -1.708
   559   ha    10   UNL   H11  559     0.136000      1.00800 ; qtot -1.572
   560   ha    10   UNL   H12  560     0.135000      1.00800 ; qtot -1.437
   561   ha    10   UNL   H13  561     0.136000      1.00800 ; qtot -1.301
   562   ha    10   UNL   H14  562     0.143000      1.00800 ; qtot -1.158
   563   ha    10   UNL   H15  563     0.145000      1.00800 ; qtot -1.013
   564   ha    10   UNL   H16  564     0.145000      1.00800 ; qtot -0.868
   565   ha    10   UNL   H17  565     0.145500      1.00800 ; qtot -0.723
   566   ha    10   UNL   H18  566     0.145500      1.00800 ; qtot -0.577
   567   ha    10   UNL   H19  567     0.145000      1.00800 ; qtot -0.432
   568   ha    10   UNL   H20  568     0.145000      1.00800 ; qtot -0.287
   569   ha    10   UNL   H21  569     0.146000      1.00800 ; qtot -0.141
   570   ha    10   UNL   H22  570     0.141000      1.00800 ; qtot -0.000
   571   sh    11   UNL    S1  571    -0.240700     32.06000 ; qtot -0.241
   572   ca    11   UNL    C1  572     0.019900     12.01000 ; qtot -0.221
   573   ca    11   UNL    C2  573    -0.129500     12.01000 ; qtot -0.350
   574   ca    11   UNL    C3  574    -0.092000     12.01000 ; qtot -0.442
   575   ca    11   UNL    C4  575    -0.049100     12.01000 ; qtot -0.491
   576   ss    11   UNL    S2  576    -0.084800     32.06000 ; qtot -0.576
   577   ca    11   UNL    C5  577    -0.028100     12.01000 ; qtot -0.604
   578   ca    11   UNL    C6  578    -0.114000     12.01000 ; qtot -0.718
   579   ca    11   UNL    C7  579    -0.106500     12.01000 ; qtot -0.825
   580   ca    11   UNL    C8  580    -0.036100     12.01000 ; qtot -0.861
   581   ss    11   UNL    S3  581    -0.086800     32.06000 ; qtot -0.948
   582   ca    11   UNL    C9  582    -0.036100     12.01000 ; qtot -0.984
   583   ca    11   UNL   C10  583    -0.106000     12.01000 ; qtot -1.090
   584   ca    11   UNL   C11  584    -0.113000     12.01000 ; qtot -1.203
   585   ca    11   UNL   C12  585    -0.029100     12.01000 ; qtot -1.232
   586   ss    11   UNL    S4  586    -0.085800     32.06000 ; qtot -1.318
   587   ca    11   UNL   C13  587    -0.042100     12.01000 ; qtot -1.360
   588   ca    11   UNL   C14  588    -0.101000     12.01000 ; qtot -1.461
   589   ca    11   UNL   C15  589    -0.118500     12.01000 ; qtot -1.579
   590   ca    11   UNL   C16  590    -0.021100     12.01000 ; qtot -1.600
   591   ss    11   UNL    S5  591    -0.090800     32.06000 ; qtot -1.691
   592   ca    11   UNL   C17  592    -0.040100     12.01000 ; qtot -1.731
   593   ca    11   UNL   C18  593    -0.107500     12.01000 ; qtot -1.839
   594   ca    11   UNL   C19  594    -0.127000     12.01000 ; qtot -1.966
   595   ca    11   UNL   C20  595    -0.120000     12.01000 ; qtot -2.086
   596   ca    11   UNL   C21  596    -0.127000     12.01000 ; qtot -2.213
   597   ca    11   UNL   C22  597    -0.107500     12.01000 ; qtot -2.320
   598   ca    11   UNL   C23  598    -0.118500     12.01000 ; qtot -2.439
   599   ca    11   UNL   C24  599    -0.101000     12.01000 ; qtot -2.540
   600   ca    11   UNL   C25  600    -0.113000     12.01000 ; qtot -2.653
   601   ca    11   UNL   C26  601    -0.106000     12.01000 ; qtot -2.759
   602   ca    11   UNL   C27  602    -0.106500     12.01000 ; qtot -2.865
   603   ca    11   UNL   C28  603    -0.114000     12.01000 ; qtot -2.979
   604   ca    11   UNL   C29  604    -0.092000     12.01000 ; qtot -3.071
   605   ca    11   UNL   C30  605    -0.129500     12.01000 ; qtot -3.201
   606   hs    11   UNL    H1  606     0.191800      1.00800 ; qtot -3.009
   607   ha    11   UNL    H2  607     0.141000      1.00800 ; qtot -2.868
   608   ha    11   UNL    H3  608     0.146000      1.00800 ; qtot -2.722
   609   ha    11   UNL    H4  609     0.145000      1.00800 ; qtot -2.577
   610   ha    11   UNL    H5  610     0.145000      1.00800 ; qtot -2.432
   611   ha    11   UNL    H6  611     0.145500      1.00800 ; qtot -2.287
   612   ha    11   UNL    H7  612     0.145500      1.00800 ; qtot -2.141
   613   ha    11   UNL    H8  613     0.145000      1.00800 ; qtot -1.996
   614   ha    11   UNL    H9  614     0.145000      1.00800 ; qtot -1.851
   615   ha    11   UNL   H10  615     0.143000      1.00800 ; qtot -1.708
   616   ha    11   UNL   H11  616     0.136000      1.00800 ; qtot -1.572
   617   ha    11   UNL   H12  617     0.135000      1.00800 ; qtot -1.437
   618   ha    11   UNL   H13  618     0.136000      1.00800 ; qtot -1.301
   619   ha    11   UNL   H14  619     0.143000      1.00800 ; qtot -1.158
   620   ha    11   UNL   H15  620     0.145000      1.00800 ; qtot -1.013
   621   ha    11   UNL   H16  621     0.145000      1.00800 ; qtot -0.868
   622   ha    11   UNL   H17  622     0.145500      1.00800 ; qtot -0.723
   623   ha    11   UNL   H18  623     0.145500      1.00800 ; qtot -0.577
   624   ha    11   UNL   H19  624     0.145000      1.00800 ; qtot -0.432
   625   ha    11   UNL   H20  625     0.145000      1.00800 ; qtot -0.287
   626   ha    11   UNL   H21  626     0.146000      1.00800 ; qtot -0.141
   627   ha    11   UNL   H22  627     0.141000      1.00800 ; qtot -0.000
   628   sh    12   UNL    S1  628    -0.240700     32.06000 ; qtot -0.241
   629   ca    12   UNL    C1  629     0.019900     12.01000 ; qtot -0.221
   630   ca    12   UNL    C2  630    -0.129500     12.01000 ; qtot -0.350
   631   ca    12   UNL    C3  631    -0.092000     12.01000 ; qtot -0.442
   632   ca    12   UNL    C4  632    -0.049100     12.01000 ; qtot -0.491
   633   ss    12   UNL    S2  633    -0.084800     32.06000 ; qtot -0.576
   634   ca    12   UNL    C5  634    -0.028100     12.01000 ; qtot -0.604
   635   ca    12   UNL    C6  635    -0.114000     12.01000 ; qtot -0.718
   636   ca    12   UNL    C7  636    -0.106500     12.01000 ; qtot -0.825
   637   ca    12   UNL    C8  637    -0.036100     12.01000 ; qtot -0.861
   638   ss    12   UNL    S3  638    -0.086800     32.06000 ; qtot -0.948
   639   ca    12   UNL    C9  639    -0.036100     12.01000 ; qtot -0.984
   640   ca    12   UNL   C10  640    -0.106000     12.01000 ; qtot -1.090
   641   ca    12   UNL   C11  641    -0.113000     12.01000 ; qtot -1.203
   642   ca    12   UNL   C12  642    -0.029100     12.01000 ; qtot -1.232
   643   ss    12   UNL    S4  643    -0.085800     32.06000 ; qtot -1.318
   644   ca    12   UNL   C13  644    -0.042100     12.01000 ; qtot -1.360
   645   ca    12   UNL   C14  645    -0.101000     12.01000 ; qtot -1.461
   646   ca    12   UNL   C15  646    -0.118500     12.01000 ; qtot -1.579
   647   ca    12   UNL   C16  647    -0.021100     12.01000 ; qtot -1.600
   648   ss    12   UNL    S5  648    -0.090800     32.06000 ; qtot -1.691
   649   ca    12   UNL   C17  649    -0.040100     12.01000 ; qtot -1.731
   650   ca    12   UNL   C18  650    -0.107500     12.01000 ; qtot -1.839
   651   ca    12   UNL   C19  651    -0.127000     12.01000 ; qtot -1.966
   652   ca    12   UNL   C20  652    -0.120000     12.01000 ; qtot -2.086
   653   ca    12   UNL   C21  653    -0.127000     12.01000 ; qtot -2.213
   654   ca    12   UNL   C22  654    -0.107500     12.01000 ; qtot -2.320
   655   ca    12   UNL   C23  655    -0.118500     12.01000 ; qtot -2.439
   656   ca    12   UNL   C24  656    -0.101000     12.01000 ; qtot -2.540
   657   ca    12   UNL   C25  657    -0.113000     12.01000 ; qtot -2.653
   658   ca    12   UNL   C26  658    -0.106000     12.01000 ; qtot -2.759
   659   ca    12   UNL   C27  659    -0.106500     12.01000 ; qtot -2.865
   660   ca    12   UNL   C28  660    -0.114000     12.01000 ; qtot -2.979
   661   ca    12   UNL   C29  661    -0.092000     12.01000 ; qtot -3.071
   662   ca    12   UNL   C30  662    -0.129500     12.01000 ; qtot -3.201
   663   hs    12   UNL    H1  663     0.191800      1.00800 ; qtot -3.009
   664   ha    12   UNL    H2  664     0.141000      1.00800 ; qtot -2.868
   665   ha    12   UNL    H3  665     0.146000      1.00800 ; qtot -2.722
   666   ha    12   UNL    H4  666     0.145000      1.00800 ; qtot -2.577
   667   ha    12   UNL    H5  667     0.145000      1.00800 ; qtot -2.432
   668   ha    12   UNL    H6  668     0.145500      1.00800 ; qtot -2.287
   669   ha    12   UNL    H7  669     0.145500      1.00800 ; qtot -2.141
   670   ha    12   UNL    H8  670     0.145000      1.00800 ; qtot -1.996
   671   ha    12   UNL    H9  671     0.145000      1.00800 ; qtot -1.851
   672   ha    12   UNL   H10  672     0.143000      1.00800 ; qtot -1.708
   673   ha    12   UNL   H11  673     0.136000      1.00800 ; qtot -1.572
   674   ha    12   UNL   H12  674     0.135000      1.00800 ; qtot -1.437
   675   ha    12   UNL   H13  675     0.136000      1.00800 ; qtot -1.301
   676   ha    12   UNL   H14  676     0.143000      1.00800 ; qtot -1.158
   677   ha    12   UNL   H15  677     0.145000      1.00800 ; qtot -1.013
   678   ha    12   UNL   H16  678     0.145000      1.00800 ; qtot -0.868
   679   ha    12   UNL   H17  679     0.145500      1.00800 ; qtot -0.723
   680   ha    12   UNL   H18  680     0.145500      1.00800 ; qtot -0.577
   681   ha    12   UNL   H19  681     0.145000      1.00800 ; qtot -0.432
   682   ha    12   UNL   H20  682     0.145000      1.00800 ; qtot -0.287
   683   ha    12   UNL   H21  683     0.146000      1.00800 ; qtot -0.141
   684   ha    12   UNL   H22  684     0.141000      1.00800 ; qtot -0.000
   685   sh    13   UNL    S1  685    -0.240700     32.06000 ; qtot -0.241
   686   ca    13   UNL    C1  686     0.019900     12.01000 ; qtot -0.221
   687   ca    13   UNL    C2  687    -0.129500     12.01000 ; qtot -0.350
   688   ca    13   UNL    C3  688    -0.092000     12.01000 ; qtot -0.442
   689   ca    13   UNL    C4  689    -0.049100     12.01000 ; qtot -0.491
   690   ss    13   UNL    S2  690    -0.084800     32.06000 ; qtot -0.576
   691   ca    13   UNL    C5  691    -0.028100     12.01000 ; qtot -0.604
   692   ca    13   UNL    C6  692    -0.114000     12.01000 ; qtot -0.718
   693   ca    13   UNL    C7  693    -0.106500     12.01000 ; qtot -0.825
   694   ca    13   UNL    C8  694    -0.036100     12.01000 ; qtot -0.861
   695   ss    13   UNL    S3  695    -0.086800     32.06000 ; qtot -0.948
   696   ca    13   UNL    C9  696    -0.036100     12.01000 ; qtot -0.984
   697   ca    13   UNL   C10  697    -0.106000     12.01000 ; qtot -1.090
   698   ca    13   UNL   C11  698    -0.113000     12.01000 ; qtot -1.203
   699   ca    13   UNL   C12  699    -0.029100     12.01000 ; qtot -1.232
   700   ss    13   UNL    S4  700    -0.085800     32.06000 ; qtot -1.318
   701   ca    13   UNL   C13  701    -0.042100     12.01000 ; qtot -1.360
   702   ca    13   UNL   C14  702    -0.101000     12.01000 ; qtot -1.461
   703   ca    13   UNL   C15  703    -0.118500     12.01000 ; qtot -1.579
   704   ca    13   UNL   C16  704    -0.021100     12.01000 ; qtot -1.600
   705   ss    13   UNL    S5  705    -0.090800     32.06000 ; qtot -1.691
   706   ca    13   UNL   C17  706    -0.040100     12.01000 ; qtot -1.731
   707   ca    13   UNL   C18  707    -0.107500     12.01000 ; qtot -1.839
   708   ca    13   UNL   C19  708    -0.127000     12.01000 ; qtot -1.966
   709   ca    13   UNL   C20  709    -0.120000     12.01000 ; qtot -2.086
   710   ca    13   UNL   C21  710    -0.127000     12.01000 ; qtot -2.213
   711   ca    13   UNL   C22  711    -0.107500     12.01000 ; qtot -2.320
   712   ca    13   UNL   C23  712    -0.118500     12.01000 ; qtot -2.439
   713   ca    13   UNL   C24  713    -0.101000     12.01000 ; qtot -2.540
   714   ca    13   UNL   C25  714    -0.113000     12.01000 ; qtot -2.653
   715   ca    13   UNL   C26  715    -0.106000     12.01000 ; qtot -2.759
   716   ca    13   UNL   C27  716    -0.106500     12.01000 ; qtot -2.865
   717   ca    13   UNL   C28  717    -0.114000     12.01000 ; qtot -2.979
   718   ca    13   UNL   C29  718    -0.092000     12.01000 ; qtot -3.071
   719   ca    13   UNL   C30  719    -0.129500     12.01000 ; qtot -3.201
   720   hs    13   UNL    H1  720     0.191800      1.00800 ; qtot -3.009
   721   ha    13   UNL    H2  721     0.141000      1.00800 ; qtot -2.868
   722   ha    13   UNL    H3  722     0.146000      1.00800 ; qtot -2.722
   723   ha    13   UNL    H4  723     0.145000      1.00800 ; qtot -2.577
   724   ha    13   UNL    H5  724     0.145000      1.00800 ; qtot -2.432
   725   ha    13   UNL    H6  725     0.145500      1.00800 ; qtot -2.287
   726   ha    13   UNL    H7  726     0.145500      1.00800 ; qtot -2.141
   727   ha    13   UNL    H8  727     0.145000      1.00800 ; qtot -1.996
   728   ha    13   UNL    H9  728     0.145000      1.00800 ; qtot -1.851
   729   ha    13   UNL   H10  729     0.143000      1.00800 ; qtot -1.708
   730   ha    13   UNL   H11  730     0.136000      1.00800 ; qtot -1.572
   731   ha    13   UNL   H12  731     0.135000      1.00800 ; qtot -1.437
   732   ha    13   UNL   H13  732     0.136000      1.00800 ; qtot -1.301
   733   ha    13   UNL   H14  733     0.143000      1.00800 ; qtot -1.158
   734   ha    13   UNL   H15  734     0.145000      1.00800 ; qtot -1.013
   735   ha    13   UNL   H16  735     0.145000      1.00800 ; qtot -0.868
   736   ha    13   UNL   H17  736     0.145500      1.00800 ; qtot -0.723
   737   ha    13   UNL   H18  737     0.145500      1.00800 ; qtot -0.577
   738   ha    13   UNL   H19  738     0.145000      1.00800 ; qtot -0.432
   739   ha    13   UNL   H20  739     0.145000      1.00800 ; qtot -0.287
   740   ha    13   UNL   H21  740     0.146000      1.00800 ; qtot -0.141
   741   ha    13   UNL   H22  741     0.141000      1.00800 ; qtot -0.000
   742   sh    14   UNL    S1  742    -0.240700     32.06000 ; qtot -0.241
   743   ca    14   UNL    C1  743     0.019900     12.01000 ; qtot -0.221
   744   ca    14   UNL    C2  744    -0.129500     12.01000 ; qtot -0.350
   745   ca    14   UNL    C3  745    -0.092000     12.01000 ; qtot -0.442
   746   ca    14   UNL    C4  746    -0.049100     12.01000 ; qtot -0.491
   747   ss    14   UNL    S2  747    -0.084800     32.06000 ; qtot -0.576
   748   ca    14   UNL    C5  748    -0.028100     12.01000 ; qtot -0.604
   749   ca    14   UNL    C6  749    -0.114000     12.01000 ; qtot -0.718
   750   ca    14   UNL    C7  750    -0.106500     12.01000 ; qtot -0.825
   751   ca    14   UNL    C8  751    -0.036100     12.01000 ; qtot -0.861
   752   ss    14   UNL    S3  752    -0.086800     32.06000 ; qtot -0.948
   753   ca    14   UNL    C9  753    -0.036100     12.01000 ; qtot -0.984
   754   ca    14   UNL   C10  754    -0.106000     12.01000 ; qtot -1.090
   755   ca    14   UNL   C11  755    -0.113000     12.01000 ; qtot -1.203
   756   ca    14   UNL   C12  756    -0.029100     12.01000 ; qtot -1.232
   757   ss    14   UNL    S4  757    -0.085800     32.06000 ; qtot -1.318
   758   ca    14   UNL   C13  758    -0.042100     12.01000 ; qtot -1.360
   759   ca    14   UNL   C14  759    -0.101000     12.01000 ; qtot -1.461
   760   ca    14   UNL   C15  760    -0.118500     12.01000 ; qtot -1.579
   761   ca    14   UNL   C16  761    -0.021100     12.01000 ; qtot -1.600
   762   ss    14   UNL    S5  762    -0.090800     32.06000 ; qtot -1.691
   763   ca    14   UNL   C17  763    -0.040100     12.01000 ; qtot -1.731
   764   ca    14   UNL   C18  764    -0.107500     12.01000 ; qtot -1.839
   765   ca    14   UNL   C19  765    -0.127000     12.01000 ; qtot -1.966
   766   ca    14   UNL   C20  766    -0.120000     12.01000 ; qtot -2.086
   767   ca    14   UNL   C21  767    -0.127000     12.01000 ; qtot -2.213
   768   ca    14   UNL   C22  768    -0.107500     12.01000 ; qtot -2.320
   769   ca    14   UNL   C23  769    -0.118500     12.01000 ; qtot -2.439
   770   ca    14   UNL   C24  770    -0.101000     12.01000 ; qtot -2.540
   771   ca    14   UNL   C25  771    -0.113000     12.01000 ; qtot -2.653
   772   ca    14   UNL   C26  772    -0.106000     12.01000 ; qtot -2.759
   773   ca    14   UNL   C27  773    -0.106500     12.01000 ; qtot -2.865
   774   ca    14   UNL   C28  774    -0.114000     12.01000 ; qtot -2.979
   775   ca    14   UNL   C29  775    -0.092000     12.01000 ; qtot -3.071
   776   ca    14   UNL   C30  776    -0.129500     12.01000 ; qtot -3.201
   777   hs    14   UNL    H1  777     0.191800      1.00800 ; qtot -3.009
   778   ha    14   UNL    H2  778     0.141000      1.00800 ; qtot -2.868
   779   ha    14   UNL    H3  779     0.146000      1.00800 ; qtot -2.722
   780   ha    14   UNL    H4  780     0.145000      1.00800 ; qtot -2.577
   781   ha    14   UNL    H5  781     0.145000      1.00800 ; qtot -2.432
   782   ha    14   UNL    H6  782     0.145500      1.00800 ; qtot -2.287
   783   ha    14   UNL    H7  783     0.145500      1.00800 ; qtot -2.141
   784   ha    14   UNL    H8  784     0.145000      1.00800 ; qtot -1.996
   785   ha    14   UNL    H9  785     0.145000      1.00800 ; qtot -1.851
   786   ha    14   UNL   H10  786     0.143000      1.00800 ; qtot -1.708
   787   ha    14   UNL   H11  787     0.136000      1.00800 ; qtot -1.572
   788   ha    14   UNL   H12  788     0.135000      1.00800 ; qtot -1.437
   789   ha    14   UNL   H13  789     0.136000      1.00800 ; qtot -1.301
   790   ha    14   UNL   H14  790     0.143000      1.00800 ; qtot -1.158
   791   ha    14   UNL   H15  791     0.145000      1.00800 ; qtot -1.013
   792   ha    14   UNL   H16  792     0.145000      1.00800 ; qtot -0.868
   793   ha    14   UNL   H17  793     0.145500      1.00800 ; qtot -0.723
   794   ha    14   UNL   H18  794     0.145500      1.00800 ; qtot -0.577
   795   ha    14   UNL   H19  795     0.145000      1.00800 ; qtot -0.432
   796   ha    14   UNL   H20  796     0.145000      1.00800 ; qtot -0.287
   797   ha    14   UNL   H21  797     0.146000      1.00800 ; qtot -0.141
   798   ha    14   UNL   H22  798     0.141000      1.00800 ; qtot -0.000
   799   sh    15   UNL    S1  799    -0.240700     32.06000 ; qtot -0.241
   800   ca    15   UNL    C1  800     0.019900     12.01000 ; qtot -0.221
   801   ca    15   UNL    C2  801    -0.129500     12.01000 ; qtot -0.350
   802   ca    15   UNL    C3  802    -0.092000     12.01000 ; qtot -0.442
   803   ca    15   UNL    C4  803    -0.049100     12.01000 ; qtot -0.491
   804   ss    15   UNL    S2  804    -0.084800     32.06000 ; qtot -0.576
   805   ca    15   UNL    C5  805    -0.028100     12.01000 ; qtot -0.604
   806   ca    15   UNL    C6  806    -0.114000     12.01000 ; qtot -0.718
   807   ca    15   UNL    C7  807    -0.106500     12.01000 ; qtot -0.825
   808   ca    15   UNL    C8  808    -0.036100     12.01000 ; qtot -0.861
   809   ss    15   UNL    S3  809    -0.086800     32.06000 ; qtot -0.948
   810   ca    15   UNL    C9  810    -0.036100     12.01000 ; qtot -0.984
   811   ca    15   UNL   C10  811    -0.106000     12.01000 ; qtot -1.090
   812   ca    15   UNL   C11  812    -0.113000     12.01000 ; qtot -1.203
   813   ca    15   UNL   C12  813    -0.029100     12.01000 ; qtot -1.232
   814   ss    15   UNL    S4  814    -0.085800     32.06000 ; qtot -1.318
   815   ca    15   UNL   C13  815    -0.042100     12.01000 ; qtot -1.360
   816   ca    15   UNL   C14  816    -0.101000     12.01000 ; qtot -1.461
   817   ca    15   UNL   C15  817    -0.118500     12.01000 ; qtot -1.579
   818   ca    15   UNL   C16  818    -0.021100     12.01000 ; qtot -1.600
   819   ss    15   UNL    S5  819    -0.090800     32.06000 ; qtot -1.691
   820   ca    15   UNL   C17  820    -0.040100     12.01000 ; qtot -1.731
   821   ca    15   UNL   C18  821    -0.107500     12.01000 ; qtot -1.839
   822   ca    15   UNL   C19  822    -0.127000     12.01000 ; qtot -1.966
   823   ca    15   UNL   C20  823    -0.120000     12.01000 ; qtot -2.086
   824   ca    15   UNL   C21  824    -0.127000     12.01000 ; qtot -2.213
   825   ca    15   UNL   C22  825    -0.107500     12.01000 ; qtot -2.320
   826   ca    15   UNL   C23  826    -0.118500     12.01000 ; qtot -2.439
   827   ca    15   UNL   C24  827    -0.101000     12.01000 ; qtot -2.540
   828   ca    15   UNL   C25  828    -0.113000     12.01000 ; qtot -2.653
   829   ca    15   UNL   C26  829    -0.106000     12.01000 ; qtot -2.759
   830   ca    15   UNL   C27  830    -0.106500     12.01000 ; qtot -2.865
   831   ca    15   UNL   C28  831    -0.114000     12.01000 ; qtot -2.979
   832   ca    15   UNL   C29  832    -0.092000     12.01000 ; qtot -3.071
   833   ca    15   UNL   C30  833    -0.129500     12.01000 ; qtot -3.201
   834   hs    15   UNL    H1  834     0.191800      1.00800 ; qtot -3.009
   835   ha    15   UNL    H2  835     0.141000      1.00800 ; qtot -2.868
   836   ha    15   UNL    H3  836     0.146000      1.00800 ; qtot -2.722
   837   ha    15   UNL    H4  837     0.145000      1.00800 ; qtot -2.577
   838   ha    15   UNL    H5  838     0.145000      1.00800 ; qtot -2.432
   839   ha    15   UNL    H6  839     0.145500      1.00800 ; qtot -2.287
   840   ha    15   UNL    H7  840     0.145500      1.00800 ; qtot -2.141
   841   ha    15   UNL    H8  841     0.145000      1.00800 ; qtot -1.996
   842   ha    15   UNL    H9  842     0.145000      1.00800 ; qtot -1.851
   843   ha    15   UNL   H10  843     0.143000      1.00800 ; qtot -1.708
   844   ha    15   UNL   H11  844     0.136000      1.00800 ; qtot -1.572
   845   ha    15   UNL   H12  845     0.135000      1.00800 ; qtot -1.437
   846   ha    15   UNL   H13  846     0.136000      1.00800 ; qtot -1.301
   847   ha    15   UNL   H14  847     0.143000      1.00800 ; qtot -1.158
   848   ha    15   UNL   H15  848     0.145000      1.00800 ; qtot -1.013
   849   ha    15   UNL   H16  849     0.145000      1.00800 ; qtot -0.868
   850   ha    15   UNL   H17  850     0.145500      1.00800 ; qtot -0.723
   851   ha    15   UNL   H18  851     0.145500      1.00800 ; qtot -0.577
   852   ha    15   UNL   H19  852     0.145000      1.00800 ; qtot -0.432
   853   ha    15   UNL   H20  853     0.145000      1.00800 ; qtot -0.287
   854   ha    15   UNL   H21  854     0.146000      1.00800 ; qtot -0.141
   855   ha    15   UNL   H22  855     0.141000      1.00800 ; qtot -0.000
   856   sh    16   UNL    S1  856    -0.240700     32.06000 ; qtot -0.241
   857   ca    16   UNL    C1  857     0.019900     12.01000 ; qtot -0.221
   858   ca    16   UNL    C2  858    -0.129500     12.01000 ; qtot -0.350
   859   ca    16   UNL    C3  859    -0.092000     12.01000 ; qtot -0.442
   860   ca    16   UNL    C4  860    -0.049100     12.01000 ; qtot -0.491
   861   ss    16   UNL    S2  861    -0.084800     32.06000 ; qtot -0.576
   862   ca    16   UNL    C5  862    -0.028100     12.01000 ; qtot -0.604
   863   ca    16   UNL    C6  863    -0.114000     12.01000 ; qtot -0.718
   864   ca    16   UNL    C7  864    -0.106500     12.01000 ; qtot -0.825
   865   ca    16   UNL    C8  865    -0.036100     12.01000 ; qtot -0.861
   866   ss    16   UNL    S3  866    -0.086800     32.06000 ; qtot -0.948
   867   ca    16   UNL    C9  867    -0.036100     12.01000 ; qtot -0.984
   868   ca    16   UNL   C10  868    -0.106000     12.01000 ; qtot -1.090
   869   ca    16   UNL   C11  869    -0.113000     12.01000 ; qtot -1.203
   870   ca    16   UNL   C12  870    -0.029100     12.01000 ; qtot -1.232
   871   ss    16   UNL    S4  871    -0.085800     32.06000 ; qtot -1.318
   872   ca    16   UNL   C13  872    -0.042100     12.01000 ; qtot -1.360
   873   ca    16   UNL   C14  873    -0.101000     12.01000 ; qtot -1.461
   874   ca    16   UNL   C15  874    -0.118500     12.01000 ; qtot -1.579
   875   ca    16   UNL   C16  875    -0.021100     12.01000 ; qtot -1.600
   876   ss    16   UNL    S5  876    -0.090800     32.06000 ; qtot -1.691
   877   ca    16   UNL   C17  877    -0.040100     12.01000 ; qtot -1.731
   878   ca    16   UNL   C18  878    -0.107500     12.01000 ; qtot -1.839
   879   ca    16   UNL   C19  879    -0.127000     12.01000 ; qtot -1.966
   880   ca    16   UNL   C20  880    -0.120000     12.01000 ; qtot -2.086
   881   ca    16   UNL   C21  881    -0.127000     12.01000 ; qtot -2.213
   882   ca    16   UNL   C22  882    -0.107500     12.01000 ; qtot -2.320
   883   ca    16   UNL   C23  883    -0.118500     12.01000 ; qtot -2.439
   884   ca    16   UNL   C24  884    -0.101000     12.01000 ; qtot -2.540
   885   ca    16   UNL   C25  885    -0.113000     12.01000 ; qtot -2.653
   886   ca    16   UNL   C26  886    -0.106000     12.01000 ; qtot -2.759
   887   ca    16   UNL   C27  887    -0.106500     12.01000 ; qtot -2.865
   888   ca    16   UNL   C28  888    -0.114000     12.01000 ; qtot -2.979
   889   ca    16   UNL   C29  889    -0.092000     12.01000 ; qtot -3.071
   890   ca    16   UNL   C30  890    -0.129500     12.01000 ; qtot -3.201
   891   hs    16   UNL    H1  891     0.191800      1.00800 ; qtot -3.009
   892   ha    16   UNL    H2  892     0.141000      1.00800 ; qtot -2.868
   893   ha    16   UNL    H3  893     0.146000      1.00800 ; qtot -2.722
   894   ha    16   UNL    H4  894     0.145000      1.00800 ; qtot -2.577
   895   ha    16   UNL    H5  895     0.145000      1.00800 ; qtot -2.432
   896   ha    16   UNL    H6  896     0.145500      1.00800 ; qtot -2.287
   897   ha    16   UNL    H7  897     0.145500      1.00800 ; qtot -2.141
   898   ha    16   UNL    H8  898     0.145000      1.00800 ; qtot -1.996
   899   ha    16   UNL    H9  899     0.145000      1.00800 ; qtot -1.851
   900   ha    16   UNL   H10  900     0.143000      1.00800 ; qtot -1.708
   901   ha    16   UNL   H11  901     0.136000      1.00800 ; qtot -1.572
   902   ha    16   UNL   H12  902     0.135000      1.00800 ; qtot -1.437
   903   ha    16   UNL   H13  903     0.136000      1.00800 ; qtot -1.301
   904   ha    16   UNL   H14  904     0.143000      1.00800 ; qtot -1.158
   905   ha    16   UNL   H15  905     0.145000      1.00800 ; qtot -1.013
   906   ha    16   UNL   H16  906     0.145000      1.00800 ; qtot -0.868
   907   ha    16   UNL   H17  907     0.145500      1.00800 ; qtot -0.723
   908   ha    16   UNL   H18  908     0.145500      1.00800 ; qtot -0.577
   909   ha    16   UNL   H19  909     0.145000      1.00800 ; qtot -0.432
   910   ha    16   UNL   H20  910     0.145000      1.00800 ; qtot -0.287
   911   ha    16   UNL   H21  911     0.146000      1.00800 ; qtot -0.141
   912   ha    16   UNL   H22  912     0.141000      1.00800 ; qtot -0.000
   913   sh    17   UNL    S1  913    -0.240700     32.06000 ; qtot -0.241
   914   ca    17   UNL    C1  914     0.019900     12.01000 ; qtot -0.221
   915   ca    17   UNL    C2  915    -0.129500     12.01000 ; qtot -0.350
   916   ca    17   UNL    C3  916    -0.092000     12.01000 ; qtot -0.442
   917   ca    17   UNL    C4  917    -0.049100     12.01000 ; qtot -0.491
   918   ss    17   UNL    S2  918    -0.084800     32.06000 ; qtot -0.576
   919   ca    17   UNL    C5  919    -0.028100     12.01000 ; qtot -0.604
   920   ca    17   UNL    C6  920    -0.114000     12.01000 ; qtot -0.718
   921   ca    17   UNL    C7  921    -0.106500     12.01000 ; qtot -0.825
   922   ca    17   UNL    C8  922    -0.036100     12.01000 ; qtot -0.861
   923   ss    17   UNL    S3  923    -0.086800     32.06000 ; qtot -0.948
   924   ca    17   UNL    C9  924    -0.036100     12.01000 ; qtot -0.984
   925   ca    17   UNL   C10  925    -0.106000     12.01000 ; qtot -1.090
   926   ca    17   UNL   C11  926    -0.113000     12.01000 ; qtot -1.203
   927   ca    17   UNL   C12  927    -0.029100     12.01000 ; qtot -1.232
   928   ss    17   UNL    S4  928    -0.085800     32.06000 ; qtot -1.318
   929   ca    17   UNL   C13  929    -0.042100     12.01000 ; qtot -1.360
   930   ca    17   UNL   C14  930    -0.101000     12.01000 ; qtot -1.461
   931   ca    17   UNL   C15  931    -0.118500     12.01000 ; qtot -1.579
   932   ca    17   UNL   C16  932    -0.021100     12.01000 ; qtot -1.600
   933   ss    17   UNL    S5  933    -0.090800     32.06000 ; qtot -1.691
   934   ca    17   UNL   C17  934    -0.040100     12.01000 ; qtot -1.731
   935   ca    17   UNL   C18  935    -0.107500     12.01000 ; qtot -1.839
   936   ca    17   UNL   C19  936    -0.127000     12.01000 ; qtot -1.966
   937   ca    17   UNL   C20  937    -0.120000     12.01000 ; qtot -2.086
   938   ca    17   UNL   C21  938    -0.127000     12.01000 ; qtot -2.213
   939   ca    17   UNL   C22  939    -0.107500     12.01000 ; qtot -2.320
   940   ca    17   UNL   C23  940    -0.118500     12.01000 ; qtot -2.439
   941   ca    17   UNL   C24  941    -0.101000     12.01000 ; qtot -2.540
   942   ca    17   UNL   C25  942    -0.113000     12.01000 ; qtot -2.653
   943   ca    17   UNL   C26  943    -0.106000     12.01000 ; qtot -2.759
   944   ca    17   UNL   C27  944    -0.106500     12.01000 ; qtot -2.865
   945   ca    17   UNL   C28  945    -0.114000     12.01000 ; qtot -2.979
   946   ca    17   UNL   C29  946    -0.092000     12.01000 ; qtot -3.071
   947   ca    17   UNL   C30  947    -0.129500     12.01000 ; qtot -3.201
   948   hs    17   UNL    H1  948     0.191800      1.00800 ; qtot -3.009
   949   ha    17   UNL    H2  949     0.141000      1.00800 ; qtot -2.868
   950   ha    17   UNL    H3  950     0.146000      1.00800 ; qtot -2.722
   951   ha    17   UNL    H4  951     0.145000      1.00800 ; qtot -2.577
   952   ha    17   UNL    H5  952     0.145000      1.00800 ; qtot -2.432
   953   ha    17   UNL    H6  953     0.145500      1.00800 ; qtot -2.287
   954   ha    17   UNL    H7  954     0.145500      1.00800 ; qtot -2.141
   955   ha    17   UNL    H8  955     0.145000      1.00800 ; qtot -1.996
   956   ha    17   UNL    H9  956     0.145000      1.00800 ; qtot -1.851
   957   ha    17   UNL   H10  957     0.143000      1.00800 ; qtot -1.708
   958   ha    17   UNL   H11  958     0.136000      1.00800 ; qtot -1.572
   959   ha    17   UNL   H12  959     0.135000      1.00800 ; qtot -1.437
   960   ha    17   UNL   H13  960     0.136000      1.00800 ; qtot -1.301
   961   ha    17   UNL   H14  961     0.143000      1.00800 ; qtot -1.158
   962   ha    17   UNL   H15  962     0.145000      1.00800 ; qtot -1.013
   963   ha    17   UNL   H16  963     0.145000      1.00800 ; qtot -0.868
   964   ha    17   UNL   H17  964     0.145500      1.00800 ; qtot -0.723
   965   ha    17   UNL   H18  965     0.145500      1.00800 ; qtot -0.577
   966   ha    17   UNL   H19  966     0.145000      1.00800 ; qtot -0.432
   967   ha    17   UNL   H20  967     0.145000      1.00800 ; qtot -0.287
   968   ha    17   UNL   H21  968     0.146000      1.00800 ; qtot -0.141
   969   ha    17   UNL   H22  969     0.141000      1.00800 ; qtot -0.000
   970   sh    18   UNL    S1  970    -0.240700     32.06000 ; qtot -0.241
   971   ca    18   UNL    C1  971     0.019900     12.01000 ; qtot -0.221
   972   ca    18   UNL    C2  972    -0.129500     12.01000 ; qtot -0.350
   973   ca    18   UNL    C3  973    -0.092000     12.01000 ; qtot -0.442
   974   ca    18   UNL    C4  974    -0.049100     12.01000 ; qtot -0.491
   975   ss    18   UNL    S2  975    -0.084800     32.06000 ; qtot -0.576
   976   ca    18   UNL    C5  976    -0.028100     12.01000 ; qtot -0.604
   977   ca    18   UNL    C6  977    -0.114000     12.01000 ; qtot -0.718
   978   ca    18   UNL    C7  978    -0.106500     12.01000 ; qtot -0.825
   979   ca    18   UNL    C8  979    -0.036100     12.01000 ; qtot -0.861
   980   ss    18   UNL    S3  980    -0.086800     32.06000 ; qtot -0.948
   981   ca    18   UNL    C9  981    -0.036100     12.01000 ; qtot -0.984
   982   ca    18   UNL   C10  982    -0.106000     12.01000 ; qtot -1.090
   983   ca    18   UNL   C11  983    -0.113000     12.01000 ; qtot -1.203
   984   ca    18   UNL   C12  984    -0.029100     12.01000 ; qtot -1.232
   985   ss    18   UNL    S4  985    -0.085800     32.06000 ; qtot -1.318
   986   ca    18   UNL   C13  986    -0.042100     12.01000 ; qtot -1.360
   987   ca    18   UNL   C14  987    -0.101000     12.01000 ; qtot -1.461
   988   ca    18   UNL   C15  988    -0.118500     12.01000 ; qtot -1.579
   989   ca    18   UNL   C16  989    -0.021100     12.01000 ; qtot -1.600
   990   ss    18   UNL    S5  990    -0.090800     32.06000 ; qtot -1.691
   991   ca    18   UNL   C17  991    -0.040100     12.01000 ; qtot -1.731
   992   ca    18   UNL   C18  992    -0.107500     12.01000 ; qtot -1.839
   993   ca    18   UNL   C19  993    -0.127000     12.01000 ; qtot -1.966
   994   ca    18   UNL   C20  994    -0.120000     12.01000 ; qtot -2.086
   995   ca    18   UNL   C21  995    -0.127000     12.01000 ; qtot -2.213
   996   ca    18   UNL   C22  996    -0.107500     12.01000 ; qtot -2.320
   997   ca    18   UNL   C23  997    -0.118500     12.01000 ; qtot -2.439
   998   ca    18   UNL   C24  998    -0.101000     12.01000 ; qtot -2.540
   999   ca    18   UNL   C25  999    -0.113000     12.01000 ; qtot -2.653
  1000   ca    18   UNL   C26 1000    -0.106000     12.01000 ; qtot -2.759
  1001   ca    18   UNL   C27 1001    -0.106500     12.01000 ; qtot -2.865
  1002   ca    18   UNL   C28 1002    -0.114000     12.01000 ; qtot -2.979
  1003   ca    18   UNL   C29 1003    -0.092000     12.01000 ; qtot -3.071
  1004   ca    18   UNL   C30 1004    -0.129500     12.01000 ; qtot -3.201
  1005   hs    18   UNL    H1 1005     0.191800      1.00800 ; qtot -3.009
  1006   ha    18   UNL    H2 1006     0.141000      1.00800 ; qtot -2.868
  1007   ha    18   UNL    H3 1007     0.146000      1.00800 ; qtot -2.722
  1008   ha    18   UNL    H4 1008     0.145000      1.00800 ; qtot -2.577
  1009   ha    18   UNL    H5 1009     0.145000      1.00800 ; qtot -2.432
  1010   ha    18   UNL    H6 1010     0.145500      1.00800 ; qtot -2.287
  1011   ha    18   UNL    H7 1011     0.145500      1.00800 ; qtot -2.141
  1012   ha    18   UNL    H8 1012     0.145000      1.00800 ; qtot -1.996
  1013   ha    18   UNL    H9 1013     0.145000      1.00800 ; qtot -1.851
  1014   ha    18   UNL   H10 1014     0.143000      1.00800 ; qtot -1.708
  1015   ha    18   UNL   H11 1015     0.136000      1.00800 ; qtot -1.572
  1016   ha    18   UNL   H12 1016     0.135000      1.00800 ; qtot -1.437
  1017   ha    18   UNL   H13 1017     0.136000      1.00800 ; qtot -1.301
  1018   ha    18   UNL   H14 1018     0.143000      1.00800 ; qtot -1.158
  1019   ha    18   UNL   H15 1019     0.145000      1.00800 ; qtot -1.013
  1020   ha    18   UNL   H16 1020     0.145000      1.00800 ; qtot -0.868
  1021   ha    18   UNL   H17 1021     0.145500      1.00800 ; qtot -0.723
  1022   ha    18   UNL   H18 1022     0.145500      1.00800 ; qtot -0.577
  1023   ha    18   UNL   H19 1023     0.145000      1.00800 ; qtot -0.432
  1024   ha    18   UNL   H20 1024     0.145000      1.00800 ; qtot -0.287
  1025   ha    18   UNL   H21 1025     0.146000      1.00800 ; qtot -0.141
  1026   ha    18   UNL   H22 1026     0.141000      1.00800 ; qtot -0.000
  1027   sh    19   UNL    S1 1027    -0.240700     32.06000 ; qtot -0.241
  1028   ca    19   UNL    C1 1028     0.019900     12.01000 ; qtot -0.221
  1029   ca    19   UNL    C2 1029    -0.129500     12.01000 ; qtot -0.350
  1030   ca    19   UNL    C3 1030    -0.092000     12.01000 ; qtot -0.442
  1031   ca    19   UNL    C4 1031    -0.049100     12.01000 ; qtot -0.491
  1032   ss    19   UNL    S2 1032    -0.084800     32.06000 ; qtot -0.576
  1033   ca    19   UNL    C5 1033    -0.028100     12.01000 ; qtot -0.604
  1034   ca    19   UNL    C6 1034    -0.114000     12.01000 ; qtot -0.718
  1035   ca    19   UNL    C7 1035    -0.106500     12.01000 ; qtot -0.825
  1036   ca    19   UNL    C8 1036    -0.036100     12.01000 ; qtot -0.861
  1037   ss    19   UNL    S3 1037    -0.086800     32.06000 ; qtot -0.948
  1038   ca    19   UNL    C9 1038    -0.036100     12.01000 ; qtot -0.984
  1039   ca    19   UNL   C10 1039    -0.106000     12.01000 ; qtot -1.090
  1040   ca    19   UNL   C11 1040    -0.113000     12.01000 ; qtot -1.203
  1041   ca    19   UNL   C12 1041    -0.029100     12.01000 ; qtot -1.232
  1042   ss    19   UNL    S4 1042    -0.085800     32.06000 ; qtot -1.318
  1043   ca    19   UNL   C13 1043    -0.042100     12.01000 ; qtot -1.360
  1044   ca    19   UNL   C14 1044    -0.101000     12.01000 ; qtot -1.461
  1045   ca    19   UNL   C15 1045    -0.118500     12.01000 ; qtot -1.579
  1046   ca    19   UNL   C16 1046    -0.021100     12.01000 ; qtot -1.600
  1047   ss    19   UNL    S5 1047    -0.090800     32.06000 ; qtot -1.691
  1048   ca    19   UNL   C17 1048    -0.040100     12.01000 ; qtot -1.731
  1049   ca    19   UNL   C18 1049    -0.107500     12.01000 ; qtot -1.839
  1050   ca    19   UNL   C19 1050    -0.127000     12.01000 ; qtot -1.966
  1051   ca    19   UNL   C20 1051    -0.120000     12.01000 ; qtot -2.086
  1052   ca    19   UNL   C21 1052    -0.127000     12.01000 ; qtot -2.213
  1053   ca    19   UNL   C22 1053    -0.107500     12.01000 ; qtot -2.320
  1054   ca    19   UNL   C23 1054    -0.118500     12.01000 ; qtot -2.439
  1055   ca    19   UNL   C24 1055    -0.101000     12.01000 ; qtot -2.540
  1056   ca    19   UNL   C25 1056    -0.113000     12.01000 ; qtot -2.653
  1057   ca    19   UNL   C26 1057    -0.106000     12.01000 ; qtot -2.759
  1058   ca    19   UNL   C27 1058    -0.106500     12.01000 ; qtot -2.865
  1059   ca    19   UNL   C28 1059    -0.114000     12.01000 ; qtot -2.979
  1060   ca    19   UNL   C29 1060    -0.092000     12.01000 ; qtot -3.071
  1061   ca    19   UNL   C30 1061    -0.129500     12.01000 ; qtot -3.201
  1062   hs    19   UNL    H1 1062     0.191800      1.00800 ; qtot -3.009
  1063   ha    19   UNL    H2 1063     0.141000      1.00800 ; qtot -2.868
  1064   ha    19   UNL    H3 1064     0.146000      1.00800 ; qtot -2.722
  1065   ha    19   UNL    H4 1065     0.145000      1.00800 ; qtot -2.577
  1066   ha    19   UNL    H5 1066     0.145000      1.00800 ; qtot -2.432
  1067   ha    19   UNL    H6 1067     0.145500      1.00800 ; qtot -2.287
  1068   ha    19   UNL    H7 1068     0.145500      1.00800 ; qtot -2.141
  1069   ha    19   UNL    H8 1069     0.145000      1.00800 ; qtot -1.996
  1070   ha    19   UNL    H9 1070     0.145000      1.00800 ; qtot -1.851
  1071   ha    19   UNL   H10 1071     0.143000      1.00800 ; qtot -1.708
  1072   ha    19   UNL   H11 1072     0.136000      1.00800 ; qtot -1.572
  1073   ha    19   UNL   H12 1073     0.135000      1.00800 ; qtot -1.437
  1074   ha    19   UNL   H13 1074     0.136000      1.00800 ; qtot -1.301
  1075   ha    19   UNL   H14 1075     0.143000      1.00800 ; qtot -1.158
  1076   ha    19   UNL   H15 1076     0.145000      1.00800 ; qtot -1.013
  1077   ha    19   UNL   H16 1077     0.145000      1.00800 ; qtot -0.868
  1078   ha    19   UNL   H17 1078     0.145500      1.00800 ; qtot -0.723
  1079   ha    19   UNL   H18 1079     0.145500      1.00800 ; qtot -0.577
  1080   ha    19   UNL   H19 1080     0.145000      1.00800 ; qtot -0.432
  1081   ha    19   UNL   H20 1081     0.145000      1.00800 ; qtot -0.287
  1082   ha    19   UNL   H21 1082     0.146000      1.00800 ; qtot -0.141
  1083   ha    19   UNL   H22 1083     0.141000      1.00800 ; qtot -0.000
  1084   sh    20   UNL    S1 1084    -0.240700     32.06000 ; qtot -0.241
  1085   ca    20   UNL    C1 1085     0.019900     12.01000 ; qtot -0.221
  1086   ca    20   UNL    C2 1086    -0.129500     12.01000 ; qtot -0.350
  1087   ca    20   UNL    C3 1087    -0.092000     12.01000 ; qtot -0.442
  1088   ca    20   UNL    C4 1088    -0.049100     12.01000 ; qtot -0.491
  1089   ss    20   UNL    S2 1089    -0.084800     32.06000 ; qtot -0.576
  1090   ca    20   UNL    C5 1090    -0.028100     12.01000 ; qtot -0.604
  1091   ca    20   UNL    C6 1091    -0.114000     12.01000 ; qtot -0.718
  1092   ca    20   UNL    C7 1092    -0.106500     12.01000 ; qtot -0.825
  1093   ca    20   UNL    C8 1093    -0.036100     12.01000 ; qtot -0.861
  1094   ss    20   UNL    S3 1094    -0.086800     32.06000 ; qtot -0.948
  1095   ca    20   UNL    C9 1095    -0.036100     12.01000 ; qtot -0.984
  1096   ca    20   UNL   C10 1096    -0.106000     12.01000 ; qtot -1.090
  1097   ca    20   UNL   C11 1097    -0.113000     12.01000 ; qtot -1.203
  1098   ca    20   UNL   C12 1098    -0.029100     12.01000 ; qtot -1.232
  1099   ss    20   UNL    S4 1099    -0.085800     32.06000 ; qtot -1.318
  1100   ca    20   UNL   C13 1100    -0.042100     12.01000 ; qtot -1.360
  1101   ca    20   UNL   C14 1101    -0.101000     12.01000 ; qtot -1.461
  1102   ca    20   UNL   C15 1102    -0.118500     12.01000 ; qtot -1.579
  1103   ca    20   UNL   C16 1103    -0.021100     12.01000 ; qtot -1.600
  1104   ss    20   UNL    S5 1104    -0.090800     32.06000 ; qtot -1.691
  1105   ca    20   UNL   C17 1105    -0.040100     12.01000 ; qtot -1.731
  1106   ca    20   UNL   C18 1106    -0.107500     12.01000 ; qtot -1.839
  1107   ca    20   UNL   C19 1107    -0.127000     12.01000 ; qtot -1.966
  1108   ca    20   UNL   C20 1108    -0.120000     12.01000 ; qtot -2.086
  1109   ca    20   UNL   C21 1109    -0.127000     12.01000 ; qtot -2.213
  1110   ca    20   UNL   C22 1110    -0.107500     12.01000 ; qtot -2.320
  1111   ca    20   UNL   C23 1111    -0.118500     12.01000 ; qtot -2.439
  1112   ca    20   UNL   C24 1112    -0.101000     12.01000 ; qtot -2.540
  1113   ca    20   UNL   C25 1113    -0.113000     12.01000 ; qtot -2.653
  1114   ca    20   UNL   C26 1114    -0.106000     12.01000 ; qtot -2.759
  1115   ca    20   UNL   C27 1115    -0.106500     12.01000 ; qtot -2.865
  1116   ca    20   UNL   C28 1116    -0.114000     12.01000 ; qtot -2.979
  1117   ca    20   UNL   C29 1117    -0.092000     12.01000 ; qtot -3.071
  1118   ca    20   UNL   C30 1118    -0.129500     12.01000 ; qtot -3.201
  1119   hs    20   UNL    H1 1119     0.191800      1.00800 ; qtot -3.009
  1120   ha    20   UNL    H2 1120     0.141000      1.00800 ; qtot -2.868
  1121   ha    20   UNL    H3 1121     0.146000      1.00800 ; qtot -2.722
  1122   ha    20   UNL    H4 1122     0.145000      1.00800 ; qtot -2.577
  1123   ha    20   UNL    H5 1123     0.145000      1.00800 ; qtot -2.432
  1124   ha    20   UNL    H6 1124     0.145500      1.00800 ; qtot -2.287
  1125   ha    20   UNL    H7 1125     0.145500      1.00800 ; qtot -2.141
  1126   ha    20   UNL    H8 1126     0.145000      1.00800 ; qtot -1.996
  1127   ha    20   UNL    H9 1127     0.145000      1.00800 ; qtot -1.851
  1128   ha    20   UNL   H10 1128     0.143000      1.00800 ; qtot -1.708
  1129   ha    20   UNL   H11 1129     0.136000      1.00800 ; qtot -1.572
  1130   ha    20   UNL   H12 1130     0.135000      1.00800 ; qtot -1.437
  1131   ha    20   UNL   H13 1131     0.136000      1.00800 ; qtot -1.301
  1132   ha    20   UNL   H14 1132     0.143000      1.00800 ; qtot -1.158
  1133   ha    20   UNL   H15 1133     0.145000      1.00800 ; qtot -1.013
  1134   ha    20   UNL   H16 1134     0.145000      1.00800 ; qtot -0.868
  1135   ha    20   UNL   H17 1135     0.145500      1.00800 ; qtot -0.723
  1136   ha    20   UNL   H18 1136     0.145500      1.00800 ; qtot -0.577
  1137   ha    20   UNL   H19 1137     0.145000      1.00800 ; qtot -0.432
  1138   ha    20   UNL   H20 1138     0.145000      1.00800 ; qtot -0.287
  1139   ha    20   UNL   H21 1139     0.146000      1.00800 ; qtot -0.141
  1140   ha    20   UNL   H22 1140     0.141000      1.00800 ; qtot -0.000

[ bonds ]
;   ai     aj funct   r             k
     1      2   1    1.7817e-01    1.8005e+05 ;     S1 - C1    
     1     36   1    1.3503e-01    2.3222e+05 ;     S1 - H1    
     2      3   1    1.3986e-01    2.9644e+05 ;     C1 - C2    
     2     35   1    1.3986e-01    2.9644e+05 ;     C1 - C30   
     3      4   1    1.3986e-01    2.9644e+05 ;     C2 - C3    
     3     37   1    1.0860e-01    3.0183e+05 ;     C2 - H2    
     4      5   1    1.3986e-01    2.9644e+05 ;     C3 - C4    
     4     38   1    1.0860e-01    3.0183e+05 ;     C3 - H3    
     5      6   1    1.7847e-01    1.7864e+05 ;     C4 - S2    
     5     34   1    1.3986e-01    2.9644e+05 ;     C4 - C29   
     6      7   1    1.7847e-01    1.7864e+05 ;     S2 - C5    
     7      8   1    1.3986e-01    2.9644e+05 ;     C5 - C6    
     7     33   1    1.3986e-01    2.9644e+05 ;     C5 - C28   
     8      9   1    1.3986e-01    2.9644e+05 ;     C6 - C7    
     8     39   1    1.0860e-01    3.0183e+05 ;     C6 - H4    
     9     10   1    1.3986e-01    2.9644e+05 ;     C7 - C8    
     9     40   1    1.0860e-01    3.0183e+05 ;     C7 - H5    
    10     11   1    1.7847e-01    1.7864e+05 ;     C8 - S3    
    10     32   1    1.3986e-01    2.9644e+05 ;     C8 - C27   
    11     12   1    1.7847e-01    1.7864e+05 ;     S3 - C9    
    12     13   1    1.3986e-01    2.9644e+05 ;     C9 - C10   
    12     31   1    1.3986e-01    2.9644e+05 ;     C9 - C26   
    13     14   1    1.3986e-01    2.9644e+05 ;    C10 - C11   
    13     41   1    1.0860e-01    3.0183e+05 ;    C10 - H6    
    14     15   1    1.3986e-01    2.9644e+05 ;    C11 - C12   
    14     42   1    1.0860e-01    3.0183e+05 ;    C11 - H7    
    15     16   1    1.7847e-01    1.7864e+05 ;    C12 - S4    
    15     30   1    1.3986e-01    2.9644e+05 ;    C12 - C25   
    16     17   1    1.7847e-01    1.7864e+05 ;     S4 - C13   
    17     18   1    1.3986e-01    2.9644e+05 ;    C13 - C14   
    17     29   1    1.3986e-01    2.9644e+05 ;    C13 - C24   
    18     19   1    1.3986e-01    2.9644e+05 ;    C14 - C15   
    18     43   1    1.0860e-01    3.0183e+05 ;    C14 - H8    
    19     20   1    1.3986e-01    2.9644e+05 ;    C15 - C16   
    19     44   1    1.0860e-01    3.0183e+05 ;    C15 - H9    
    20     21   1    1.7847e-01    1.7864e+05 ;    C16 - S5    
    20     28   1    1.3986e-01    2.9644e+05 ;    C16 - C23   
    21     22   1    1.7847e-01    1.7864e+05 ;     S5 - C17   
    22     23   1    1.3986e-01    2.9644e+05 ;    C17 - C18   
    22     27   1    1.3986e-01    2.9644e+05 ;    C17 - C22   
    23     24   1    1.3986e-01    2.9644e+05 ;    C18 - C19   
    23     45   1    1.0860e-01    3.0183e+05 ;    C18 - H10   
    24     25   1    1.3986e-01    2.9644e+05 ;    C19 - C20   
    24     46   1    1.0860e-01    3.0183e+05 ;    C19 - H11   
    25     26   1    1.3986e-01    2.9644e+05 ;    C20 - C21   
    25     47   1    1.0860e-01    3.0183e+05 ;    C20 - H12   
    26     27   1    1.3986e-01    2.9644e+05 ;    C21 - C22   
    26     48   1    1.0860e-01    3.0183e+05 ;    C21 - H13   
    27     49   1    1.0860e-01    3.0183e+05 ;    C22 - H14   
    28     29   1    1.3986e-01    2.9644e+05 ;    C23 - C24   
    28     50   1    1.0860e-01    3.0183e+05 ;    C23 - H15   
    29     51   1    1.0860e-01    3.0183e+05 ;    C24 - H16   
    30     31   1    1.3986e-01    2.9644e+05 ;    C25 - C26   
    30     52   1    1.0860e-01    3.0183e+05 ;    C25 - H17   
    31     53   1    1.0860e-01    3.0183e+05 ;    C26 - H18   
    32     33   1    1.3986e-01    2.9644e+05 ;    C27 - C28   
    32     54   1    1.0860e-01    3.0183e+05 ;    C27 - H19   
    33     55   1    1.0860e-01    3.0183e+05 ;    C28 - H20   
    34     35   1    1.3986e-01    2.9644e+05 ;    C29 - C30   
    34     56   1    1.0860e-01    3.0183e+05 ;    C29 - H21   
    35     57   1    1.0860e-01    3.0183e+05 ;    C30 - H22   
    58     59   1    1.7817e-01    1.8005e+05 ;     S1 - C1    
    58     93   1    1.3503e-01    2.3222e+05 ;     S1 - H1    
    59     60   1    1.3986e-01    2.9644e+05 ;     C1 - C2    
    59     92   1    1.3986e-01    2.9644e+05 ;     C1 - C30   
    60     61   1    1.3986e-01    2.9644e+05 ;     C2 - C3    
    60     94   1    1.0860e-01    3.0183e+05 ;     C2 - H2    
    61     62   1    1.3986e-01    2.9644e+05 ;     C3 - C4    
    61     95   1    1.0860e-01    3.0183e+05 ;     C3 - H3    
    62     63   1    1.7847e-01    1.7864e+05 ;     C4 - S2    
    62     91   1    1.3986e-01    2.9644e+05 ;     C4 - C29   
    63     64   1    1.7847e-01    1.7864e+05 ;     S2 - C5    
    64     65   1    1.3986e-01    2.9644e+05 ;     C5 - C6    
    64     90   1    1.3986e-01    2.9644e+05 ;     C5 - C28   
    65     66   1    1.3986e-01    2.9644e+05 ;     C6 - C7    
    65     96   1    1.0860e-01    3.0183e+05 ;     C6 - H4    
    66     67   1    1.3986e-01    2.9644e+05 ;     C7 - C8    
    66     97   1    1.0860e-01    3.0183e+05 ;     C7 - H5    
    67     68   1    1.7847e-01    1.7864e+05 ;     C8 - S3    
    67     89   1    1.3986e-01    2.9644e+05 ;     C8 - C27   
    68     69   1    1.7847e-01    1.7864e+05 ;     S3 - C9    
    69     70   1    1.3986e-01    2.9644e+05 ;     C9 - C10   
    69     88   1    1.3986e-01    2.9644e+05 ;     C9 - C26   
    70     71   1    1.3986e-01    2.9644e+05 ;    C10 - C11   
    70     98   1    1.0860e-01    3.0183e+05 ;    C10 - H6    
    71     72   1    1.3986e-01    2.9644e+05 ;    C11 - C12   
    71     99   1    1.0860e-01    3.0183e+05 ;    C11 - H7    
    72     73   1    1.7847e-01    1.7864e+05 ;    C12 - S4    
    72     87   1    1.3986e-01    2.9644e+05 ;    C12 - C25   
    73     74   1    1.7847e-01    1.7864e+05 ;     S4 - C13   
    74     75   1    1.3986e-01    2.9644e+05 ;    C13 - C14   
    74     86   1    1.3986e-01    2.9644e+05 ;    C13 - C24   
    75     76   1    1.3986e-01    2.9644e+05 ;    C14 - C15   
    75    100   1    1.0860e-01    3.0183e+05 ;    C14 - H8    
    76     77   1    1.3986e-01    2.9644e+05 ;    C15 - C16   
    76    101   1    1.0860e-01    3.0183e+05 ;    C15 - H9    
    77     78   1    1.7847e-01    1.7864e+05 ;    C16 - S5    
    77     85   1    1.3986e-01    2.9644e+05 ;    C16 - C23   
    78     79   1    1.7847e-01    1.7864e+05 ;     S5 - C17   
    79     80   1    1.3986e-01    2.9644e+05 ;    C17 - C18   
    79     84   1    1.3986e-01    2.9644e+05 ;    C17 - C22   
    80     81   1    1.3986e-01    2.9644e+05 ;    C18 - C19   
    80    102   1    1.0860e-01    3.0183e+05 ;    C18 - H10   
    81     82   1    1.3986e-01    2.9644e+05 ;    C19 - C20   
    81    103   1    1.0860e-01    3.0183e+05 ;    C19 - H11   
    82     83   1    1.3986e-01    2.9644e+05 ;    C20 - C21   
    82    104   1    1.0860e-01    3.0183e+05 ;    C20 - H12   
    83     84   1    1.3986e-01    2.9644e+05 ;    C21 - C22   
    83    105   1    1.0860e-01    3.0183e+05 ;    C21 - H13   
    84    106   1    1.0860e-01    3.0183e+05 ;    C22 - H14   
    85     86   1    1.3986e-01    2.9644e+05 ;    C23 - C24   
    85    107   1    1.0860e-01    3.0183e+05 ;    C23 - H15   
    86    108   1    1.0860e-01    3.0183e+05 ;    C24 - H16   
    87     88   1    1.3986e-01    2.9644e+05 ;    C25 - C26   
    87    109   1    1.0860e-01    3.0183e+05 ;    C25 - H17   
    88    110   1    1.0860e-01    3.0183e+05 ;    C26 - H18   
    89     90   1    1.3986e-01    2.9644e+05 ;    C27 - C28   
    89    111   1    1.0860e-01    3.0183e+05 ;    C27 - H19   
    90    112   1    1.0860e-01    3.0183e+05 ;    C28 - H20   
    91     92   1    1.3986e-01    2.9644e+05 ;    C29 - C30   
    91    113   1    1.0860e-01    3.0183e+05 ;    C29 - H21   
    92    114   1    1.0860e-01    3.0183e+05 ;    C30 - H22   
   115    116   1    1.7817e-01    1.8005e+05 ;     S1 - C1    
   115    150   1    1.3503e-01    2.3222e+05 ;     S1 - H1    
   116    117   1    1.3986e-01    2.9644e+05 ;     C1 - C2    
   116    149   1    1.3986e-01    2.9644e+05 ;     C1 - C30   
   117    118   1    1.3986e-01    2.9644e+05 ;     C2 - C3    
   117    151   1    1.0860e-01    3.0183e+05 ;     C2 - H2    
   118    119   1    1.3986e-01    2.9644e+05 ;     C3 - C4    
   118    152   1    1.0860e-01    3.0183e+05 ;     C3 - H3    
   119    120   1    1.7847e-01    1.7864e+05 ;     C4 - S2    
   119    148   1    1.3986e-01    2.9644e+05 ;     C4 - C29   
   120    121   1    1.7847e-01    1.7864e+05 ;     S2 - C5    
   121    122   1    1.3986e-01    2.9644e+05 ;     C5 - C6    
   121    147   1    1.3986e-01    2.9644e+05 ;     C5 - C28   
   122    123   1    1.3986e-01    2.9644e+05 ;     C6 - C7    
   122    153   1    1.0860e-01    3.0183e+05 ;     C6 - H4    
   123    124   1    1.3986e-01    2.9644e+05 ;     C7 - C8    
   123    154   1    1.0860e-01    3.0183e+05 ;     C7 - H5    
   124    125   1    1.7847e-01    1.7864e+05 ;     C8 - S3    
   124    146   1    1.3986e-01    2.9644e+05 ;     C8 - C27   
   125    126   1    1.7847e-01    1.7864e+05 ;     S3 - C9    
   126    127   1    1.3986e-01    2.9644e+05 ;     C9 - C10   
   126    145   1    1.3986e-01    2.9644e+05 ;     C9 - C26   
   127    128   1    1.3986e-01    2.9644e+05 ;    C10 - C11   
   127    155   1    1.0860e-01    3.0183e+05 ;    C10 - H6    
   128    129   1    1.3986e-01    2.9644e+05 ;    C11 - C12   
   128    156   1    1.0860e-01    3.0183e+05 ;    C11 - H7    
   129    130   1    1.7847e-01    1.7864e+05 ;    C12 - S4    
   129    144   1    1.3986e-01    2.9644e+05 ;    C12 - C25   
   130    131   1    1.7847e-01    1.7864e+05 ;     S4 - C13   
   131    132   1    1.3986e-01    2.9644e+05 ;    C13 - C14   
   131    143   1    1.3986e-01    2.9644e+05 ;    C13 - C24   
   132    133   1    1.3986e-01    2.9644e+05 ;    C14 - C15   
   132    157   1    1.0860e-01    3.0183e+05 ;    C14 - H8    
   133    134   1    1.3986e-01    2.9644e+05 ;    C15 - C16   
   133    158   1    1.0860e-01    3.0183e+05 ;    C15 - H9    
   134    135   1    1.7847e-01    1.7864e+05 ;    C16 - S5    
   134    142   1    1.3986e-01    2.9644e+05 ;    C16 - C23   
   135    136   1    1.7847e-01    1.7864e+05 ;     S5 - C17   
   136    137   1    1.3986e-01    2.9644e+05 ;    C17 - C18   
   136    141   1    1.3986e-01    2.9644e+05 ;    C17 - C22   
   137    138   1    1.3986e-01    2.9644e+05 ;    C18 - C19   
   137    159   1    1.0860e-01    3.0183e+05 ;    C18 - H10   
   138    139   1    1.3986e-01    2.9644e+05 ;    C19 - C20   
   138    160   1    1.0860e-01    3.0183e+05 ;    C19 - H11   
   139    140   1    1.3986e-01    2.9644e+05 ;    C20 - C21   
   139    161   1    1.0860e-01    3.0183e+05 ;    C20 - H12   
   140    141   1    1.3986e-01    2.9644e+05 ;    C21 - C22   
   140    162   1    1.0860e-01    3.0183e+05 ;    C21 - H13   
   141    163   1    1.0860e-01    3.0183e+05 ;    C22 - H14   
   142    143   1    1.3986e-01    2.9644e+05 ;    C23 - C24   
   142    164   1    1.0860e-01    3.0183e+05 ;    C23 - H15   
   143    165   1    1.0860e-01    3.0183e+05 ;    C24 - H16   
   144    145   1    1.3986e-01    2.9644e+05 ;    C25 - C26   
   144    166   1    1.0860e-01    3.0183e+05 ;    C25 - H17   
   145    167   1    1.0860e-01    3.0183e+05 ;    C26 - H18   
   146    147   1    1.3986e-01    2.9644e+05 ;    C27 - C28   
   146    168   1    1.0860e-01    3.0183e+05 ;    C27 - H19   
   147    169   1    1.0860e-01    3.0183e+05 ;    C28 - H20   
   148    149   1    1.3986e-01    2.9644e+05 ;    C29 - C30   
   148    170   1    1.0860e-01    3.0183e+05 ;    C29 - H21   
   149    171   1    1.0860e-01    3.0183e+05 ;    C30 - H22   
   172    173   1    1.7817e-01    1.8005e+05 ;     S1 - C1    
   172    207   1    1.3503e-01    2.3222e+05 ;     S1 - H1    
   173    174   1    1.3986e-01    2.9644e+05 ;     C1 - C2    
   173    206   1    1.3986e-01    2.9644e+05 ;     C1 - C30   
   174    175   1    1.3986e-01    2.9644e+05 ;     C2 - C3    
   174    208   1    1.0860e-01    3.0183e+05 ;     C2 - H2    
   175    176   1    1.3986e-01    2.9644e+05 ;     C3 - C4    
   175    209   1    1.0860e-01    3.0183e+05 ;     C3 - H3    
   176    177   1    1.7847e-01    1.7864e+05 ;     C4 - S2    
   176    205   1    1.3986e-01    2.9644e+05 ;     C4 - C29   
   177    178   1    1.7847e-01    1.7864e+05 ;     S2 - C5    
   178    179   1    1.3986e-01    2.9644e+05 ;     C5 - C6    
   178    204   1    1.3986e-01    2.9644e+05 ;     C5 - C28   
   179    180   1    1.3986e-01    2.9644e+05 ;     C6 - C7    
   179    210   1    1.0860e-01    3.0183e+05 ;     C6 - H4    
   180    181   1    1.3986e-01    2.9644e+05 ;     C7 - C8    
   180    211   1    1.0860e-01    3.0183e+05 ;     C7 - H5    
   181    182   1    1.7847e-01    1.7864e+05 ;     C8 - S3    
   181    203   1    1.3986e-01    2.9644e+05 ;     C8 - C27   
   182    183   1    1.7847e-01    1.7864e+05 ;     S3 - C9    
   183    184   1    1.3986e-01    2.9644e+05 ;     C9 - C10   
   183    202   1    1.3986e-01    2.9644e+05 ;     C9 - C26   
   184    185   1    1.3986e-01    2.9644e+05 ;    C10 - C11   
   184    212   1    1.0860e-01    3.0183e+05 ;    C10 - H6    
   185    186   1    1.3986e-01    2.9644e+05 ;    C11 - C12   
   185    213   1    1.0860e-01    3.0183e+05 ;    C11 - H7    
   186    187   1    1.7847e-01    1.7864e+05 ;    C12 - S4    
   186    201   1    1.3986e-01    2.9644e+05 ;    C12 - C25   
   187    188   1    1.7847e-01    1.7864e+05 ;     S4 - C13   
   188    189   1    1.3986e-01    2.9644e+05 ;    C13 - C14   
   188    200   1    1.3986e-01    2.9644e+05 ;    C13 - C24   
   189    190   1    1.3986e-01    2.9644e+05 ;    C14 - C15   
   189    214   1    1.0860e-01    3.0183e+05 ;    C14 - H8    
   190    191   1    1.3986e-01    2.9644e+05 ;    C15 - C16   
   190    215   1    1.0860e-01    3.0183e+05 ;    C15 - H9    
   191    192   1    1.7847e-01    1.7864e+05 ;    C16 - S5    
   191    199   1    1.3986e-01    2.9644e+05 ;    C16 - C23   
   192    193   1    1.7847e-01    1.7864e+05 ;     S5 - C17   
   193    194   1    1.3986e-01    2.9644e+05 ;    C17 - C18   
   193    198   1    1.3986e-01    2.9644e+05 ;    C17 - C22   
   194    195   1    1.3986e-01    2.9644e+05 ;    C18 - C19   
   194    216   1    1.0860e-01    3.0183e+05 ;    C18 - H10   
   195    196   1    1.3986e-01    2.9644e+05 ;    C19 - C20   
   195    217   1    1.0860e-01    3.0183e+05 ;    C19 - H11   
   196    197   1    1.3986e-01    2.9644e+05 ;    C20 - C21   
   196    218   1    1.0860e-01    3.0183e+05 ;    C20 - H12   
   197    198   1    1.3986e-01    2.9644e+05 ;    C21 - C22   
   197    219   1    1.0860e-01    3.0183e+05 ;    C21 - H13   
   198    220   1    1.0860e-01    3.0183e+05 ;    C22 - H14   
   199    200   1    1.3986e-01    2.9644e+05 ;    C23 - C24   
   199    221   1    1.0860e-01    3.0183e+05 ;    C23 - H15   
   200    222   1    1.0860e-01    3.0183e+05 ;    C24 - H16   
   201    202   1    1.3986e-01    2.9644e+05 ;    C25 - C26   
   201    223   1    1.0860e-01    3.0183e+05 ;    C25 - H17   
   202    224   1    1.0860e-01    3.0183e+05 ;    C26 - H18   
   203    204   1    1.3986e-01    2.9644e+05 ;    C27 - C28   
   203    225   1    1.0860e-01    3.0183e+05 ;    C27 - H19   
   204    226   1    1.0860e-01    3.0183e+05 ;    C28 - H20   
   205    206   1    1.3986e-01    2.9644e+05 ;    C29 - C30   
   205    227   1    1.0860e-01    3.0183e+05 ;    C29 - H21   
   206    228   1    1.0860e-01    3.0183e+05 ;    C30 - H22   
   229    230   1    1.7817e-01    1.8005e+05 ;     S1 - C1    
   229    264   1    1.3503e-01    2.3222e+05 ;     S1 - H1    
   230    231   1    1.3986e-01    2.9644e+05 ;     C1 - C2    
   230    263   1    1.3986e-01    2.9644e+05 ;     C1 - C30   
   231    232   1    1.3986e-01    2.9644e+05 ;     C2 - C3    
   231    265   1    1.0860e-01    3.0183e+05 ;     C2 - H2    
   232    233   1    1.3986e-01    2.9644e+05 ;     C3 - C4    
   232    266   1    1.0860e-01    3.0183e+05 ;     C3 - H3    
   233    234   1    1.7847e-01    1.7864e+05 ;     C4 - S2    
   233    262   1    1.3986e-01    2.9644e+05 ;     C4 - C29   
   234    235   1    1.7847e-01    1.7864e+05 ;     S2 - C5    
   235    236   1    1.3986e-01    2.9644e+05 ;     C5 - C6    
   235    261   1    1.3986e-01    2.9644e+05 ;     C5 - C28   
   236    237   1    1.3986e-01    2.9644e+05 ;     C6 - C7    
   236    267   1    1.0860e-01    3.0183e+05 ;     C6 - H4    
   237    238   1    1.3986e-01    2.9644e+05 ;     C7 - C8    
   237    268   1    1.0860e-01    3.0183e+05 ;     C7 - H5    
   238    239   1    1.7847e-01    1.7864e+05 ;     C8 - S3    
   238    260   1    1.3986e-01    2.9644e+05 ;     C8 - C27   
   239    240   1    1.7847e-01    1.7864e+05 ;     S3 - C9    
   240    241   1    1.3986e-01    2.9644e+05 ;     C9 - C10   
   240    259   1    1.3986e-01    2.9644e+05 ;     C9 - C26   
   241    242   1    1.3986e-01    2.9644e+05 ;    C10 - C11   
   241    269   1    1.0860e-01    3.0183e+05 ;    C10 - H6    
   242    243   1    1.3986e-01    2.9644e+05 ;    C11 - C12   
   242    270   1    1.0860e-01    3.0183e+05 ;    C11 - H7    
   243    244   1    1.7847e-01    1.7864e+05 ;    C12 - S4    
   243    258   1    1.3986e-01    2.9644e+05 ;    C12 - C25   
   244    245   1    1.7847e-01    1.7864e+05 ;     S4 - C13   
   245    246   1    1.3986e-01    2.9644e+05 ;    C13 - C14   
   245    257   1    1.3986e-01    2.9644e+05 ;    C13 - C24   
   246    247   1    1.3986e-01    2.9644e+05 ;    C14 - C15   
   246    271   1    1.0860e-01    3.0183e+05 ;    C14 - H8    
   247    248   1    1.3986e-01    2.9644e+05 ;    C15 - C16   
   247    272   1    1.0860e-01    3.0183e+05 ;    C15 - H9    
   248    249   1    1.7847e-01    1.7864e+05 ;    C16 - S5    
   248    256   1    1.3986e-01    2.9644e+05 ;    C16 - C23   
   249    250   1    1.7847e-01    1.7864e+05 ;     S5 - C17   
   250    251   1    1.3986e-01    2.9644e+05 ;    C17 - C18   
   250    255   1    1.3986e-01    2.9644e+05 ;    C17 - C22   
   251    252   1    1.3986e-01    2.9644e+05 ;    C18 - C19   
   251    273   1    1.0860e-01    3.0183e+05 ;    C18 - H10   
   252    253   1    1.3986e-01    2.9644e+05 ;    C19 - C20   
   252    274   1    1.0860e-01    3.0183e+05 ;    C19 - H11   
   253    254   1    1.3986e-01    2.9644e+05 ;    C20 - C21   
   253    275   1    1.0860e-01    3.0183e+05 ;    C20 - H12   
   254    255   1    1.3986e-01    2.9644e+05 ;    C21 - C22   
   254    276   1    1.0860e-01    3.0183e+05 ;    C21 - H13   
   255    277   1    1.0860e-01    3.0183e+05 ;    C22 - H14   
   256    257   1    1.3986e-01    2.9644e+05 ;    C23 - C24   
   256    278   1    1.0860e-01    3.0183e+05 ;    C23 - H15   
   257    279   1    1.0860e-01    3.0183e+05 ;    C24 - H16   
   258    259   1    1.3986e-01    2.9644e+05 ;    C25 - C26   
   258    280   1    1.0860e-01    3.0183e+05 ;    C25 - H17   
   259    281   1    1.0860e-01    3.0183e+05 ;    C26 - H18   
   260    261   1    1.3986e-01    2.9644e+05 ;    C27 - C28   
   260    282   1    1.0860e-01    3.0183e+05 ;    C27 - H19   
   261    283   1    1.0860e-01    3.0183e+05 ;    C28 - H20   
   262    263   1    1.3986e-01    2.9644e+05 ;    C29 - C30   
   262    284   1    1.0860e-01    3.0183e+05 ;    C29 - H21   
   263    285   1    1.0860e-01    3.0183e+05 ;    C30 - H22   
   286    287   1    1.7817e-01    1.8005e+05 ;     S1 - C1    
   286    321   1    1.3503e-01    2.3222e+05 ;     S1 - H1    
   287    288   1    1.3986e-01    2.9644e+05 ;     C1 - C2    
   287    320   1    1.3986e-01    2.9644e+05 ;     C1 - C30   
   288    289   1    1.3986e-01    2.9644e+05 ;     C2 - C3    
   288    322   1    1.0860e-01    3.0183e+05 ;     C2 - H2    
   289    290   1    1.3986e-01    2.9644e+05 ;     C3 - C4    
   289    323   1    1.0860e-01    3.0183e+05 ;     C3 - H3    
   290    291   1    1.7847e-01    1.7864e+05 ;     C4 - S2    
   290    319   1    1.3986e-01    2.9644e+05 ;     C4 - C29   
   291    292   1    1.7847e-01    1.7864e+05 ;     S2 - C5    
   292    293   1    1.3986e-01    2.9644e+05 ;     C5 - C6    
   292    318   1    1.3986e-01    2.9644e+05 ;     C5 - C28   
   293    294   1    1.3986e-01    2.9644e+05 ;     C6 - C7    
   293    324   1    1.0860e-01    3.0183e+05 ;     C6 - H4    
   294    295   1    1.3986e-01    2.9644e+05 ;     C7 - C8    
   294    325   1    1.0860e-01    3.0183e+05 ;     C7 - H5    
   295    296   1    1.7847e-01    1.7864e+05 ;     C8 - S3    
   295    317   1    1.3986e-01    2.9644e+05 ;     C8 - C27   
   296    297   1    1.7847e-01    1.7864e+05 ;     S3 - C9    
   297    298   1    1.3986e-01    2.9644e+05 ;     C9 - C10   
   297    316   1    1.3986e-01    2.9644e+05 ;     C9 - C26   
   298    299   1    1.3986e-01    2.9644e+05 ;    C10 - C11   
   298    326   1    1.0860e-01    3.0183e+05 ;    C10 - H6    
   299    300   1    1.3986e-01    2.9644e+05 ;    C11 - C12   
   299    327   1    1.0860e-01    3.0183e+05 ;    C11 - H7    
   300    301   1    1.7847e-01    1.7864e+05 ;    C12 - S4    
   300    315   1    1.3986e-01    2.9644e+05 ;    C12 - C25   
   301    302   1    1.7847e-01    1.7864e+05 ;     S4 - C13   
   302    303   1    1.3986e-01    2.9644e+05 ;    C13 - C14   
   302    314   1    1.3986e-01    2.9644e+05 ;    C13 - C24   
   303    304   1    1.3986e-01    2.9644e+05 ;    C14 - C15   
   303    328   1    1.0860e-01    3.0183e+05 ;    C14 - H8    
   304    305   1    1.3986e-01    2.9644e+05 ;    C15 - C16   
   304    329   1    1.0860e-01    3.0183e+05 ;    C15 - H9    
   305    306   1    1.7847e-01    1.7864e+05 ;    C16 - S5    
   305    313   1    1.3986e-01    2.9644e+05 ;    C16 - C23   
   306    307   1    1.7847e-01    1.7864e+05 ;     S5 - C17   
   307    308   1    1.3986e-01    2.9644e+05 ;    C17 - C18   
   307    312   1    1.3986e-01    2.9644e+05 ;    C17 - C22   
   308    309   1    1.3986e-01    2.9644e+05 ;    C18 - C19   
   308    330   1    1.0860e-01    3.0183e+05 ;    C18 - H10   
   309    310   1    1.3986e-01    2.9644e+05 ;    C19 - C20   
   309    331   1    1.0860e-01    3.0183e+05 ;    C19 - H11   
   310    311   1    1.3986e-01    2.9644e+05 ;    C20 - C21   
   310    332   1    1.0860e-01    3.0183e+05 ;    C20 - H12   
   311    312   1    1.3986e-01    2.9644e+05 ;    C21 - C22   
   311    333   1    1.0860e-01    3.0183e+05 ;    C21 - H13   
   312    334   1    1.0860e-01    3.0183e+05 ;    C22 - H14   
   313    314   1    1.3986e-01    2.9644e+05 ;    C23 - C24   
   313    335   1    1.0860e-01    3.0183e+05 ;    C23 - H15   
   314    336   1    1.0860e-01    3.0183e+05 ;    C24 - H16   
   315    316   1    1.3986e-01    2.9644e+05 ;    C25 - C26   
   315    337   1    1.0860e-01    3.0183e+05 ;    C25 - H17   
   316    338   1    1.0860e-01    3.0183e+05 ;    C26 - H18   
   317    318   1    1.3986e-01    2.9644e+05 ;    C27 - C28   
   317    339   1    1.0860e-01    3.0183e+05 ;    C27 - H19   
   318    340   1    1.0860e-01    3.0183e+05 ;    C28 - H20   
   319    320   1    1.3986e-01    2.9644e+05 ;    C29 - C30   
   319    341   1    1.0860e-01    3.0183e+05 ;    C29 - H21   
   320    342   1    1.0860e-01    3.0183e+05 ;    C30 - H22   
   343    344   1    1.7817e-01    1.8005e+05 ;     S1 - C1    
   343    378   1    1.3503e-01    2.3222e+05 ;     S1 - H1    
   344    345   1    1.3986e-01    2.9644e+05 ;     C1 - C2    
   344    377   1    1.3986e-01    2.9644e+05 ;     C1 - C30   
   345    346   1    1.3986e-01    2.9644e+05 ;     C2 - C3    
   345    379   1    1.0860e-01    3.0183e+05 ;     C2 - H2    
   346    347   1    1.3986e-01    2.9644e+05 ;     C3 - C4    
   346    380   1    1.0860e-01    3.0183e+05 ;     C3 - H3    
   347    348   1    1.7847e-01    1.7864e+05 ;     C4 - S2    
   347    376   1    1.3986e-01    2.9644e+05 ;     C4 - C29   
   348    349   1    1.7847e-01    1.7864e+05 ;     S2 - C5    
   349    350   1    1.3986e-01    2.9644e+05 ;     C5 - C6    
   349    375   1    1.3986e-01    2.9644e+05 ;     C5 - C28   
   350    351   1    1.3986e-01    2.9644e+05 ;     C6 - C7    
   350    381   1    1.0860e-01    3.0183e+05 ;     C6 - H4    
   351    352   1    1.3986e-01    2.9644e+05 ;     C7 - C8    
   351    382   1    1.0860e-01    3.0183e+05 ;     C7 - H5    
   352    353   1    1.7847e-01    1.7864e+05 ;     C8 - S3    
   352    374   1    1.3986e-01    2.9644e+05 ;     C8 - C27   
   353    354   1    1.7847e-01    1.7864e+05 ;     S3 - C9    
   354    355   1    1.3986e-01    2.9644e+05 ;     C9 - C10   
   354    373   1    1.3986e-01    2.9644e+05 ;     C9 - C26   
   355    356   1    1.3986e-01    2.9644e+05 ;    C10 - C11   
   355    383   1    1.0860e-01    3.0183e+05 ;    C10 - H6    
   356    357   1    1.3986e-01    2.9644e+05 ;    C11 - C12   
   356    384   1    1.0860e-01    3.0183e+05 ;    C11 - H7    
   357    358   1    1.7847e-01    1.7864e+05 ;    C12 - S4    
   357    372   1    1.3986e-01    2.9644e+05 ;    C12 - C25   
   358    359   1    1.7847e-01    1.7864e+05 ;     S4 - C13   
   359    360   1    1.3986e-01    2.9644e+05 ;    C13 - C14   
   359    371   1    1.3986e-01    2.9644e+05 ;    C13 - C24   
   360    361   1    1.3986e-01    2.9644e+05 ;    C14 - C15   
   360    385   1    1.0860e-01    3.0183e+05 ;    C14 - H8    
   361    362   1    1.3986e-01    2.9644e+05 ;    C15 - C16   
   361    386   1    1.0860e-01    3.0183e+05 ;    C15 - H9    
   362    363   1    1.7847e-01    1.7864e+05 ;    C16 - S5    
   362    370   1    1.3986e-01    2.9644e+05 ;    C16 - C23   
   363    364   1    1.7847e-01    1.7864e+05 ;     S5 - C17   
   364    365   1    1.3986e-01    2.9644e+05 ;    C17 - C18   
   364    369   1    1.3986e-01    2.9644e+05 ;    C17 - C22   
   365    366   1    1.3986e-01    2.9644e+05 ;    C18 - C19   
   365    387   1    1.0860e-01    3.0183e+05 ;    C18 - H10   
   366    367   1    1.3986e-01    2.9644e+05 ;    C19 - C20   
   366    388   1    1.0860e-01    3.0183e+05 ;    C19 - H11   
   367    368   1    1.3986e-01    2.9644e+05 ;    C20 - C21   
   367    389   1    1.0860e-01    3.0183e+05 ;    C20 - H12   
   368    369   1    1.3986e-01    2.9644e+05 ;    C21 - C22   
   368    390   1    1.0860e-01    3.0183e+05 ;    C21 - H13   
   369    391   1    1.0860e-01    3.0183e+05 ;    C22 - H14   
   370    371   1    1.3986e-01    2.9644e+05 ;    C23 - C24   
   370    392   1    1.0860e-01    3.0183e+05 ;    C23 - H15   
   371    393   1    1.0860e-01    3.0183e+05 ;    C24 - H16   
   372    373   1    1.3986e-01    2.9644e+05 ;    C25 - C26   
   372    394   1    1.0860e-01    3.0183e+05 ;    C25 - H17   
   373    395   1    1.0860e-01    3.0183e+05 ;    C26 - H18   
   374    375   1    1.3986e-01    2.9644e+05 ;    C27 - C28   
   374    396   1    1.0860e-01    3.0183e+05 ;    C27 - H19   
   375    397   1    1.0860e-01    3.0183e+05 ;    C28 - H20   
   376    377   1    1.3986e-01    2.9644e+05 ;    C29 - C30   
   376    398   1    1.0860e-01    3.0183e+05 ;    C29 - H21   
   377    399   1    1.0860e-01    3.0183e+05 ;    C30 - H22   
   400    401   1    1.7817e-01    1.8005e+05 ;     S1 - C1    
   400    435   1    1.3503e-01    2.3222e+05 ;     S1 - H1    
   401    402   1    1.3986e-01    2.9644e+05 ;     C1 - C2    
   401    434   1    1.3986e-01    2.9644e+05 ;     C1 - C30   
   402    403   1    1.3986e-01    2.9644e+05 ;     C2 - C3    
   402    436   1    1.0860e-01    3.0183e+05 ;     C2 - H2    
   403    404   1    1.3986e-01    2.9644e+05 ;     C3 - C4    
   403    437   1    1.0860e-01    3.0183e+05 ;     C3 - H3    
   404    405   1    1.7847e-01    1.7864e+05 ;     C4 - S2    
   404    433   1    1.3986e-01    2.9644e+05 ;     C4 - C29   
   405    406   1    1.7847e-01    1.7864e+05 ;     S2 - C5    
   406    407   1    1.3986e-01    2.9644e+05 ;     C5 - C6    
   406    432   1    1.3986e-01    2.9644e+05 ;     C5 - C28   
   407    408   1    1.3986e-01    2.9644e+05 ;     C6 - C7    
   407    438   1    1.0860e-01    3.0183e+05 ;     C6 - H4    
   408    409   1    1.3986e-01    2.9644e+05 ;     C7 - C8    
   408    439   1    1.0860e-01    3.0183e+05 ;     C7 - H5    
   409    410   1    1.7847e-01    1.7864e+05 ;     C8 - S3    
   409    431   1    1.3986e-01    2.9644e+05 ;     C8 - C27   
   410    411   1    1.7847e-01    1.7864e+05 ;     S3 - C9    
   411    412   1    1.3986e-01    2.9644e+05 ;     C9 - C10   
   411    430   1    1.3986e-01    2.9644e+05 ;     C9 - C26   
   412    413   1    1.3986e-01    2.9644e+05 ;    C10 - C11   
   412    440   1    1.0860e-01    3.0183e+05 ;    C10 - H6    
   413    414   1    1.3986e-01    2.9644e+05 ;    C11 - C12   
   413    441   1    1.0860e-01    3.0183e+05 ;    C11 - H7    
   414    415   1    1.7847e-01    1.7864e+05 ;    C12 - S4    
   414    429   1    1.3986e-01    2.9644e+05 ;    C12 - C25   
   415    416   1    1.7847e-01    1.7864e+05 ;     S4 - C13   
   416    417   1    1.3986e-01    2.9644e+05 ;    C13 - C14   
   416    428   1    1.3986e-01    2.9644e+05 ;    C13 - C24   
   417    418   1    1.3986e-01    2.9644e+05 ;    C14 - C15   
   417    442   1    1.0860e-01    3.0183e+05 ;    C14 - H8    
   418    419   1    1.3986e-01    2.9644e+05 ;    C15 - C16   
   418    443   1    1.0860e-01    3.0183e+05 ;    C15 - H9    
   419    420   1    1.7847e-01    1.7864e+05 ;    C16 - S5    
   419    427   1    1.3986e-01    2.9644e+05 ;    C16 - C23   
   420    421   1    1.7847e-01    1.7864e+05 ;     S5 - C17   
   421    422   1    1.3986e-01    2.9644e+05 ;    C17 - C18   
   421    426   1    1.3986e-01    2.9644e+05 ;    C17 - C22   
   422    423   1    1.3986e-01    2.9644e+05 ;    C18 - C19   
   422    444   1    1.0860e-01    3.0183e+05 ;    C18 - H10   
   423    424   1    1.3986e-01    2.9644e+05 ;    C19 - C20   
   423    445   1    1.0860e-01    3.0183e+05 ;    C19 - H11   
   424    425   1    1.3986e-01    2.9644e+05 ;    C20 - C21   
   424    446   1    1.0860e-01    3.0183e+05 ;    C20 - H12   
   425    426   1    1.3986e-01    2.9644e+05 ;    C21 - C22   
   425    447   1    1.0860e-01    3.0183e+05 ;    C21 - H13   
   426    448   1    1.0860e-01    3.0183e+05 ;    C22 - H14   
   427    428   1    1.3986e-01    2.9644e+05 ;    C23 - C24   
   427    449   1    1.0860e-01    3.0183e+05 ;    C23 - H15   
   428    450   1    1.0860e-01    3.0183e+05 ;    C24 - H16   
   429    430   1    1.3986e-01    2.9644e+05 ;    C25 - C26   
   429    451   1    1.0860e-01    3.0183e+05 ;    C25 - H17   
   430    452   1    1.0860e-01    3.0183e+05 ;    C26 - H18   
   431    432   1    1.3986e-01    2.9644e+05 ;    C27 - C28   
   431    453   1    1.0860e-01    3.0183e+05 ;    C27 - H19   
   432    454   1    1.0860e-01    3.0183e+05 ;    C28 - H20   
   433    434   1    1.3986e-01    2.9644e+05 ;    C29 - C30   
   433    455   1    1.0860e-01    3.0183e+05 ;    C29 - H21   
   434    456   1    1.0860e-01    3.0183e+05 ;    C30 - H22   
   457    458   1    1.7817e-01    1.8005e+05 ;     S1 - C1    
   457    492   1    1.3503e-01    2.3222e+05 ;     S1 - H1    
   458    459   1    1.3986e-01    2.9644e+05 ;     C1 - C2    
   458    491   1    1.3986e-01    2.9644e+05 ;     C1 - C30   
   459    460   1    1.3986e-01    2.9644e+05 ;     C2 - C3    
   459    493   1    1.0860e-01    3.0183e+05 ;     C2 - H2    
   460    461   1    1.3986e-01    2.9644e+05 ;     C3 - C4    
   460    494   1    1.0860e-01    3.0183e+05 ;     C3 - H3    
   461    462   1    1.7847e-01    1.7864e+05 ;     C4 - S2    
   461    490   1    1.3986e-01    2.9644e+05 ;     C4 - C29   
   462    463   1    1.7847e-01    1.7864e+05 ;     S2 - C5    
   463    464   1    1.3986e-01    2.9644e+05 ;     C5 - C6    
   463    489   1    1.3986e-01    2.9644e+05 ;     C5 - C28   
   464    465   1    1.3986e-01    2.9644e+05 ;     C6 - C7    
   464    495   1    1.0860e-01    3.0183e+05 ;     C6 - H4    
   465    466   1    1.3986e-01    2.9644e+05 ;     C7 - C8    
   465    496   1    1.0860e-01    3.0183e+05 ;     C7 - H5    
   466    467   1    1.7847e-01    1.7864e+05 ;     C8 - S3    
   466    488   1    1.3986e-01    2.9644e+05 ;     C8 - C27   
   467    468   1    1.7847e-01    1.7864e+05 ;     S3 - C9    
   468    469   1    1.3986e-01    2.9644e+05 ;     C9 - C10   
   468    487   1    1.3986e-01    2.9644e+05 ;     C9 - C26   
   469    470   1    1.3986e-01    2.9644e+05 ;    C10 - C11   
   469    497   1    1.0860e-01    3.0183e+05 ;    C10 - H6    
   470    471   1    1.3986e-01    2.9644e+05 ;    C11 - C12   
   470    498   1    1.0860e-01    3.0183e+05 ;    C11 - H7    
   471    472   1    1.7847e-01    1.7864e+05 ;    C12 - S4    
   471    486   1    1.3986e-01    2.9644e+05 ;    C12 - C25   
   472    473   1    1.7847e-01    1.7864e+05 ;     S4 - C13   
   473    474   1    1.3986e-01    2.9644e+05 ;    C13 - C14   
   473    485   1    1.3986e-01    2.9644e+05 ;    C13 - C24   
   474    475   1    1.3986e-01    2.9644e+05 ;    C14 - C15   
   474    499   1    1.0860e-01    3.0183e+05 ;    C14 - H8    
   475    476   1    1.3986e-01    2.9644e+05 ;    C15 - C16   
   475    500   1    1.0860e-01    3.0183e+05 ;    C15 - H9    
   476    477   1    1.7847e-01    1.7864e+05 ;    C16 - S5    
   476    484   1    1.3986e-01    2.9644e+05 ;    C16 - C23   
   477    478   1    1.7847e-01    1.7864e+05 ;     S5 - C17   
   478    479   1    1.3986e-01    2.9644e+05 ;    C17 - C18   
   478    483   1    1.3986e-01    2.9644e+05 ;    C17 - C22   
   479    480   1    1.3986e-01    2.9644e+05 ;    C18 - C19   
   479    501   1    1.0860e-01    3.0183e+05 ;    C18 - H10   
   480    481   1    1.3986e-01    2.9644e+05 ;    C19 - C20   
   480    502   1    1.0860e-01    3.0183e+05 ;    C19 - H11   
   481    482   1    1.3986e-01    2.9644e+05 ;    C20 - C21   
   481    503   1    1.0860e-01    3.0183e+05 ;    C20 - H12   
   482    483   1    1.3986e-01    2.9644e+05 ;    C21 - C22   
   482    504   1    1.0860e-01    3.0183e+05 ;    C21 - H13   
   483    505   1    1.0860e-01    3.0183e+05 ;    C22 - H14   
   484    485   1    1.3986e-01    2.9644e+05 ;    C23 - C24   
   484    506   1    1.0860e-01    3.0183e+05 ;    C23 - H15   
   485    507   1    1.0860e-01    3.0183e+05 ;    C24 - H16   
   486    487   1    1.3986e-01    2.9644e+05 ;    C25 - C26   
   486    508   1    1.0860e-01    3.0183e+05 ;    C25 - H17   
   487    509   1    1.0860e-01    3.0183e+05 ;    C26 - H18   
   488    489   1    1.3986e-01    2.9644e+05 ;    C27 - C28   
   488    510   1    1.0860e-01    3.0183e+05 ;    C27 - H19   
   489    511   1    1.0860e-01    3.0183e+05 ;    C28 - H20   
   490    491   1    1.3986e-01    2.9644e+05 ;    C29 - C30   
   490    512   1    1.0860e-01    3.0183e+05 ;    C29 - H21   
   491    513   1    1.0860e-01    3.0183e+05 ;    C30 - H22   
   514    515   1    1.7817e-01    1.8005e+05 ;     S1 - C1    
   514    549   1    1.3503e-01    2.3222e+05 ;     S1 - H1    
   515    516   1    1.3986e-01    2.9644e+05 ;     C1 - C2    
   515    548   1    1.3986e-01    2.9644e+05 ;     C1 - C30   
   516    517   1    1.3986e-01    2.9644e+05 ;     C2 - C3    
   516    550   1    1.0860e-01    3.0183e+05 ;     C2 - H2    
   517    518   1    1.3986e-01    2.9644e+05 ;     C3 - C4    
   517    551   1    1.0860e-01    3.0183e+05 ;     C3 - H3    
   518    519   1    1.7847e-01    1.7864e+05 ;     C4 - S2    
   518    547   1    1.3986e-01    2.9644e+05 ;     C4 - C29   
   519    520   1    1.7847e-01    1.7864e+05 ;     S2 - C5    
   520    521   1    1.3986e-01    2.9644e+05 ;     C5 - C6    
   520    546   1    1.3986e-01    2.9644e+05 ;     C5 - C28   
   521    522   1    1.3986e-01    2.9644e+05 ;     C6 - C7    
   521    552   1    1.0860e-01    3.0183e+05 ;     C6 - H4    
   522    523   1    1.3986e-01    2.9644e+05 ;     C7 - C8    
   522    553   1    1.0860e-01    3.0183e+05 ;     C7 - H5    
   523    524   1    1.7847e-01    1.7864e+05 ;     C8 - S3    
   523    545   1    1.3986e-01    2.9644e+05 ;     C8 - C27   
   524    525   1    1.7847e-01    1.7864e+05 ;     S3 - C9    
   525    526   1    1.3986e-01    2.9644e+05 ;     C9 - C10   
   525    544   1    1.3986e-01    2.9644e+05 ;     C9 - C26   
   526    527   1    1.3986e-01    2.9644e+05 ;    C10 - C11   
   526    554   1    1.0860e-01    3.0183e+05 ;    C10 - H6    
   527    528   1    1.3986e-01    2.9644e+05 ;    C11 - C12   
   527    555   1    1.0860e-01    3.0183e+05 ;    C11 - H7    
   528    529   1    1.7847e-01    1.7864e+05 ;    C12 - S4    
   528    543   1    1.3986e-01    2.9644e+05 ;    C12 - C25   
   529    530   1    1.7847e-01    1.7864e+05 ;     S4 - C13   
   530    531   1    1.3986e-01    2.9644e+05 ;    C13 - C14   
   530    542   1    1.3986e-01    2.9644e+05 ;    C13 - C24   
   531    532   1    1.3986e-01    2.9644e+05 ;    C14 - C15   
   531    556   1    1.0860e-01    3.0183e+05 ;    C14 - H8    
   532    533   1    1.3986e-01    2.9644e+05 ;    C15 - C16   
   532    557   1    1.0860e-01    3.0183e+05 ;    C15 - H9    
   533    534   1    1.7847e-01    1.7864e+05 ;    C16 - S5    
   533    541   1    1.3986e-01    2.9644e+05 ;    C16 - C23   
   534    535   1    1.7847e-01    1.7864e+05 ;     S5 - C17   
   535    536   1    1.3986e-01    2.9644e+05 ;    C17 - C18   
   535    540   1    1.3986e-01    2.9644e+05 ;    C17 - C22   
   536    537   1    1.3986e-01    2.9644e+05 ;    C18 - C19   
   536    558   1    1.0860e-01    3.0183e+05 ;    C18 - H10   
   537    538   1    1.3986e-01    2.9644e+05 ;    C19 - C20   
   537    559   1    1.0860e-01    3.0183e+05 ;    C19 - H11   
   538    539   1    1.3986e-01    2.9644e+05 ;    C20 - C21   
   538    560   1    1.0860e-01    3.0183e+05 ;    C20 - H12   
   539    540   1    1.3986e-01    2.9644e+05 ;    C21 - C22   
   539    561   1    1.0860e-01    3.0183e+05 ;    C21 - H13   
   540    562   1    1.0860e-01    3.0183e+05 ;    C22 - H14   
   541    542   1    1.3986e-01    2.9644e+05 ;    C23 - C24   
   541    563   1    1.0860e-01    3.0183e+05 ;    C23 - H15   
   542    564   1    1.0860e-01    3.0183e+05 ;    C24 - H16   
   543    544   1    1.3986e-01    2.9644e+05 ;    C25 - C26   
   543    565   1    1.0860e-01    3.0183e+05 ;    C25 - H17   
   544    566   1    1.0860e-01    3.0183e+05 ;    C26 - H18   
   545    546   1    1.3986e-01    2.9644e+05 ;    C27 - C28   
   545    567   1    1.0860e-01    3.0183e+05 ;    C27 - H19   
   546    568   1    1.0860e-01    3.0183e+05 ;    C28 - H20   
   547    548   1    1.3986e-01    2.9644e+05 ;    C29 - C30   
   547    569   1    1.0860e-01    3.0183e+05 ;    C29 - H21   
   548    570   1    1.0860e-01    3.0183e+05 ;    C30 - H22   
   571    572   1    1.7817e-01    1.8005e+05 ;     S1 - C1    
   571    606   1    1.3503e-01    2.3222e+05 ;     S1 - H1    
   572    573   1    1.3986e-01    2.9644e+05 ;     C1 - C2    
   572    605   1    1.3986e-01    2.9644e+05 ;     C1 - C30   
   573    574   1    1.3986e-01    2.9644e+05 ;     C2 - C3    
   573    607   1    1.0860e-01    3.0183e+05 ;     C2 - H2    
   574    575   1    1.3986e-01    2.9644e+05 ;     C3 - C4    
   574    608   1    1.0860e-01    3.0183e+05 ;     C3 - H3    
   575    576   1    1.7847e-01    1.7864e+05 ;     C4 - S2    
   575    604   1    1.3986e-01    2.9644e+05 ;     C4 - C29   
   576    577   1    1.7847e-01    1.7864e+05 ;     S2 - C5    
   577    578   1    1.3986e-01    2.9644e+05 ;     C5 - C6    
   577    603   1    1.3986e-01    2.9644e+05 ;     C5 - C28   
   578    579   1    1.3986e-01    2.9644e+05 ;     C6 - C7    
   578    609   1    1.0860e-01    3.0183e+05 ;     C6 - H4    
   579    580   1    1.3986e-01    2.9644e+05 ;     C7 - C8    
   579    610   1    1.0860e-01    3.0183e+05 ;     C7 - H5    
   580    581   1    1.7847e-01    1.7864e+05 ;     C8 - S3    
   580    602   1    1.3986e-01    2.9644e+05 ;     C8 - C27   
   581    582   1    1.7847e-01    1.7864e+05 ;     S3 - C9    
   582    583   1    1.3986e-01    2.9644e+05 ;     C9 - C10   
   582    601   1    1.3986e-01    2.9644e+05 ;     C9 - C26   
   583    584   1    1.3986e-01    2.9644e+05 ;    C10 - C11   
   583    611   1    1.0860e-01    3.0183e+05 ;    C10 - H6    
   584    585   1    1.3986e-01    2.9644e+05 ;    C11 - C12   
   584    612   1    1.0860e-01    3.0183e+05 ;    C11 - H7    
   585    586   1    1.7847e-01    1.7864e+05 ;    C12 - S4    
   585    600   1    1.3986e-01    2.9644e+05 ;    C12 - C25   
   586    587   1    1.7847e-01    1.7864e+05 ;     S4 - C13   
   587    588   1    1.3986e-01    2.9644e+05 ;    C13 - C14   
   587    599   1    1.3986e-01    2.9644e+05 ;    C13 - C24   
   588    589   1    1.3986e-01    2.9644e+05 ;    C14 - C15   
   588    613   1    1.0860e-01    3.0183e+05 ;    C14 - H8    
   589    590   1    1.3986e-01    2.9644e+05 ;    C15 - C16   
   589    614   1    1.0860e-01    3.0183e+05 ;    C15 - H9    
   590    591   1    1.7847e-01    1.7864e+05 ;    C16 - S5    
   590    598   1    1.3986e-01    2.9644e+05 ;    C16 - C23   
   591    592   1    1.7847e-01    1.7864e+05 ;     S5 - C17   
   592    593   1    1.3986e-01    2.9644e+05 ;    C17 - C18   
   592    597   1    1.3986e-01    2.9644e+05 ;    C17 - C22   
   593    594   1    1.3986e-01    2.9644e+05 ;    C18 - C19   
   593    615   1    1.0860e-01    3.0183e+05 ;    C18 - H10   
   594    595   1    1.3986e-01    2.9644e+05 ;    C19 - C20   
   594    616   1    1.0860e-01    3.0183e+05 ;    C19 - H11   
   595    596   1    1.3986e-01    2.9644e+05 ;    C20 - C21   
   595    617   1    1.0860e-01    3.0183e+05 ;    C20 - H12   
   596    597   1    1.3986e-01    2.9644e+05 ;    C21 - C22   
   596    618   1    1.0860e-01    3.0183e+05 ;    C21 - H13   
   597    619   1    1.0860e-01    3.0183e+05 ;    C22 - H14   
   598    599   1    1.3986e-01    2.9644e+05 ;    C23 - C24   
   598    620   1    1.0860e-01    3.0183e+05 ;    C23 - H15   
   599    621   1    1.0860e-01    3.0183e+05 ;    C24 - H16   
   600    601   1    1.3986e-01    2.9644e+05 ;    C25 - C26   
   600    622   1    1.0860e-01    3.0183e+05 ;    C25 - H17   
   601    623   1    1.0860e-01    3.0183e+05 ;    C26 - H18   
   602    603   1    1.3986e-01    2.9644e+05 ;    C27 - C28   
   602    624   1    1.0860e-01    3.0183e+05 ;    C27 - H19   
   603    625   1    1.0860e-01    3.0183e+05 ;    C28 - H20   
   604    605   1    1.3986e-01    2.9644e+05 ;    C29 - C30   
   604    626   1    1.0860e-01    3.0183e+05 ;    C29 - H21   
   605    627   1    1.0860e-01    3.0183e+05 ;    C30 - H22   
   628    629   1    1.7817e-01    1.8005e+05 ;     S1 - C1    
   628    663   1    1.3503e-01    2.3222e+05 ;     S1 - H1    
   629    630   1    1.3986e-01    2.9644e+05 ;     C1 - C2    
   629    662   1    1.3986e-01    2.9644e+05 ;     C1 - C30   
   630    631   1    1.3986e-01    2.9644e+05 ;     C2 - C3    
   630    664   1    1.0860e-01    3.0183e+05 ;     C2 - H2    
   631    632   1    1.3986e-01    2.9644e+05 ;     C3 - C4    
   631    665   1    1.0860e-01    3.0183e+05 ;     C3 - H3    
   632    633   1    1.7847e-01    1.7864e+05 ;     C4 - S2    
   632    661   1    1.3986e-01    2.9644e+05 ;     C4 - C29   
   633    634   1    1.7847e-01    1.7864e+05 ;     S2 - C5    
   634    635   1    1.3986e-01    2.9644e+05 ;     C5 - C6    
   634    660   1    1.3986e-01    2.9644e+05 ;     C5 - C28   
   635    636   1    1.3986e-01    2.9644e+05 ;     C6 - C7    
   635    666   1    1.0860e-01    3.0183e+05 ;     C6 - H4    
   636    637   1    1.3986e-01    2.9644e+05 ;     C7 - C8    
   636    667   1    1.0860e-01    3.0183e+05 ;     C7 - H5    
   637    638   1    1.7847e-01    1.7864e+05 ;     C8 - S3    
   637    659   1    1.3986e-01    2.9644e+05 ;     C8 - C27   
   638    639   1    1.7847e-01    1.7864e+05 ;     S3 - C9    
   639    640   1    1.3986e-01    2.9644e+05 ;     C9 - C10   
   639    658   1    1.3986e-01    2.9644e+05 ;     C9 - C26   
   640    641   1    1.3986e-01    2.9644e+05 ;    C10 - C11   
   640    668   1    1.0860e-01    3.0183e+05 ;    C10 - H6    
   641    642   1    1.3986e-01    2.9644e+05 ;    C11 - C12   
   641    669   1    1.0860e-01    3.0183e+05 ;    C11 - H7    
   642    643   1    1.7847e-01    1.7864e+05 ;    C12 - S4    
   642    657   1    1.3986e-01    2.9644e+05 ;    C12 - C25   
   643    644   1    1.7847e-01    1.7864e+05 ;     S4 - C13   
   644    645   1    1.3986e-01    2.9644e+05 ;    C13 - C14   
   644    656   1    1.3986e-01    2.9644e+05 ;    C13 - C24   
   645    646   1    1.3986e-01    2.9644e+05 ;    C14 - C15   
   645    670   1    1.0860e-01    3.0183e+05 ;    C14 - H8    
   646    647   1    1.3986e-01    2.9644e+05 ;    C15 - C16   
   646    671   1    1.0860e-01    3.0183e+05 ;    C15 - H9    
   647    648   1    1.7847e-01    1.7864e+05 ;    C16 - S5    
   647    655   1    1.3986e-01    2.9644e+05 ;    C16 - C23   
   648    649   1    1.7847e-01    1.7864e+05 ;     S5 - C17   
   649    650   1    1.3986e-01    2.9644e+05 ;    C17 - C18   
   649    654   1    1.3986e-01    2.9644e+05 ;    C17 - C22   
   650    651   1    1.3986e-01    2.9644e+05 ;    C18 - C19   
   650    672   1    1.0860e-01    3.0183e+05 ;    C18 - H10   
   651    652   1    1.3986e-01    2.9644e+05 ;    C19 - C20   
   651    673   1    1.0860e-01    3.0183e+05 ;    C19 - H11   
   652    653   1    1.3986e-01    2.9644e+05 ;    C20 - C21   
   652    674   1    1.0860e-01    3.0183e+05 ;    C20 - H12   
   653    654   1    1.3986e-01    2.9644e+05 ;    C21 - C22   
   653    675   1    1.0860e-01    3.0183e+05 ;    C21 - H13   
   654    676   1    1.0860e-01    3.0183e+05 ;    C22 - H14   
   655    656   1    1.3986e-01    2.9644e+05 ;    C23 - C24   
   655    677   1    1.0860e-01    3.0183e+05 ;    C23 - H15   
   656    678   1    1.0860e-01    3.0183e+05 ;    C24 - H16   
   657    658   1    1.3986e-01    2.9644e+05 ;    C25 - C26   
   657    679   1    1.0860e-01    3.0183e+05 ;    C25 - H17   
   658    680   1    1.0860e-01    3.0183e+05 ;    C26 - H18   
   659    660   1    1.3986e-01    2.9644e+05 ;    C27 - C28   
   659    681   1    1.0860e-01    3.0183e+05 ;    C27 - H19   
   660    682   1    1.0860e-01    3.0183e+05 ;    C28 - H20   
   661    662   1    1.3986e-01    2.9644e+05 ;    C29 - C30   
   661    683   1    1.0860e-01    3.0183e+05 ;    C29 - H21   
   662    684   1    1.0860e-01    3.0183e+05 ;    C30 - H22   
   685    686   1    1.7817e-01    1.8005e+05 ;     S1 - C1    
   685    720   1    1.3503e-01    2.3222e+05 ;     S1 - H1    
   686    687   1    1.3986e-01    2.9644e+05 ;     C1 - C2    
   686    719   1    1.3986e-01    2.9644e+05 ;     C1 - C30   
   687    688   1    1.3986e-01    2.9644e+05 ;     C2 - C3    
   687    721   1    1.0860e-01    3.0183e+05 ;     C2 - H2    
   688    689   1    1.3986e-01    2.9644e+05 ;     C3 - C4    
   688    722   1    1.0860e-01    3.0183e+05 ;     C3 - H3    
   689    690   1    1.7847e-01    1.7864e+05 ;     C4 - S2    
   689    718   1    1.3986e-01    2.9644e+05 ;     C4 - C29   
   690    691   1    1.7847e-01    1.7864e+05 ;     S2 - C5    
   691    692   1    1.3986e-01    2.9644e+05 ;     C5 - C6    
   691    717   1    1.3986e-01    2.9644e+05 ;     C5 - C28   
   692    693   1    1.3986e-01    2.9644e+05 ;     C6 - C7    
   692    723   1    1.0860e-01    3.0183e+05 ;     C6 - H4    
   693    694   1    1.3986e-01    2.9644e+05 ;     C7 - C8    
   693    724   1    1.0860e-01    3.0183e+05 ;     C7 - H5    
   694    695   1    1.7847e-01    1.7864e+05 ;     C8 - S3    
   694    716   1    1.3986e-01    2.9644e+05 ;     C8 - C27   
   695    696   1    1.7847e-01    1.7864e+05 ;     S3 - C9    
   696    697   1    1.3986e-01    2.9644e+05 ;     C9 - C10   
   696    715   1    1.3986e-01    2.9644e+05 ;     C9 - C26   
   697    698   1    1.3986e-01    2.9644e+05 ;    C10 - C11   
   697    725   1    1.0860e-01    3.0183e+05 ;    C10 - H6    
   698    699   1    1.3986e-01    2.9644e+05 ;    C11 - C12   
   698    726   1    1.0860e-01    3.0183e+05 ;    C11 - H7    
   699    700   1    1.7847e-01    1.7864e+05 ;    C12 - S4    
   699    714   1    1.3986e-01    2.9644e+05 ;    C12 - C25   
   700    701   1    1.7847e-01    1.7864e+05 ;     S4 - C13   
   701    702   1    1.3986e-01    2.9644e+05 ;    C13 - C14   
   701    713   1    1.3986e-01    2.9644e+05 ;    C13 - C24   
   702    703   1    1.3986e-01    2.9644e+05 ;    C14 - C15   
   702    727   1    1.0860e-01    3.0183e+05 ;    C14 - H8    
   703    704   1    1.3986e-01    2.9644e+05 ;    C15 - C16   
   703    728   1    1.0860e-01    3.0183e+05 ;    C15 - H9    
   704    705   1    1.7847e-01    1.7864e+05 ;    C16 - S5    
   704    712   1    1.3986e-01    2.9644e+05 ;    C16 - C23   
   705    706   1    1.7847e-01    1.7864e+05 ;     S5 - C17   
   706    707   1    1.3986e-01    2.9644e+05 ;    C17 - C18   
   706    711   1    1.3986e-01    2.9644e+05 ;    C17 - C22   
   707    708   1    1.3986e-01    2.9644e+05 ;    C18 - C19   
   707    729   1    1.0860e-01    3.0183e+05 ;    C18 - H10   
   708    709   1    1.3986e-01    2.9644e+05 ;    C19 - C20   
   708    730   1    1.0860e-01    3.0183e+05 ;    C19 - H11   
   709    710   1    1.3986e-01    2.9644e+05 ;    C20 - C21   
   709    731   1    1.0860e-01    3.0183e+05 ;    C20 - H12   
   710    711   1    1.3986e-01    2.9644e+05 ;    C21 - C22   
   710    732   1    1.0860e-01    3.0183e+05 ;    C21 - H13   
   711    733   1    1.0860e-01    3.0183e+05 ;    C22 - H14   
   712    713   1    1.3986e-01    2.9644e+05 ;    C23 - C24   
   712    734   1    1.0860e-01    3.0183e+05 ;    C23 - H15   
   713    735   1    1.0860e-01    3.0183e+05 ;    C24 - H16   
   714    715   1    1.3986e-01    2.9644e+05 ;    C25 - C26   
   714    736   1    1.0860e-01    3.0183e+05 ;    C25 - H17   
   715    737   1    1.0860e-01    3.0183e+05 ;    C26 - H18   
   716    717   1    1.3986e-01    2.9644e+05 ;    C27 - C28   
   716    738   1    1.0860e-01    3.0183e+05 ;    C27 - H19   
   717    739   1    1.0860e-01    3.0183e+05 ;    C28 - H20   
   718    719   1    1.3986e-01    2.9644e+05 ;    C29 - C30   
   718    740   1    1.0860e-01    3.0183e+05 ;    C29 - H21   
   719    741   1    1.0860e-01    3.0183e+05 ;    C30 - H22   
   742    743   1    1.7817e-01    1.8005e+05 ;     S1 - C1    
   742    777   1    1.3503e-01    2.3222e+05 ;     S1 - H1    
   743    744   1    1.3986e-01    2.9644e+05 ;     C1 - C2    
   743    776   1    1.3986e-01    2.9644e+05 ;     C1 - C30   
   744    745   1    1.3986e-01    2.9644e+05 ;     C2 - C3    
   744    778   1    1.0860e-01    3.0183e+05 ;     C2 - H2    
   745    746   1    1.3986e-01    2.9644e+05 ;     C3 - C4    
   745    779   1    1.0860e-01    3.0183e+05 ;     C3 - H3    
   746    747   1    1.7847e-01    1.7864e+05 ;     C4 - S2    
   746    775   1    1.3986e-01    2.9644e+05 ;     C4 - C29   
   747    748   1    1.7847e-01    1.7864e+05 ;     S2 - C5    
   748    749   1    1.3986e-01    2.9644e+05 ;     C5 - C6    
   748    774   1    1.3986e-01    2.9644e+05 ;     C5 - C28   
   749    750   1    1.3986e-01    2.9644e+05 ;     C6 - C7    
   749    780   1    1.0860e-01    3.0183e+05 ;     C6 - H4    
   750    751   1    1.3986e-01    2.9644e+05 ;     C7 - C8    
   750    781   1    1.0860e-01    3.0183e+05 ;     C7 - H5    
   751    752   1    1.7847e-01    1.7864e+05 ;     C8 - S3    
   751    773   1    1.3986e-01    2.9644e+05 ;     C8 - C27   
   752    753   1    1.7847e-01    1.7864e+05 ;     S3 - C9    
   753    754   1    1.3986e-01    2.9644e+05 ;     C9 - C10   
   753    772   1    1.3986e-01    2.9644e+05 ;     C9 - C26   
   754    755   1    1.3986e-01    2.9644e+05 ;    C10 - C11   
   754    782   1    1.0860e-01    3.0183e+05 ;    C10 - H6    
   755    756   1    1.3986e-01    2.9644e+05 ;    C11 - C12   
   755    783   1    1.0860e-01    3.0183e+05 ;    C11 - H7    
   756    757   1    1.7847e-01    1.7864e+05 ;    C12 - S4    
   756    771   1    1.3986e-01    2.9644e+05 ;    C12 - C25   
   757    758   1    1.7847e-01    1.7864e+05 ;     S4 - C13   
   758    759   1    1.3986e-01    2.9644e+05 ;    C13 - C14   
   758    770   1    1.3986e-01    2.9644e+05 ;    C13 - C24   
   759    760   1    1.3986e-01    2.9644e+05 ;    C14 - C15   
   759    784   1    1.0860e-01    3.0183e+05 ;    C14 - H8    
   760    761   1    1.3986e-01    2.9644e+05 ;    C15 - C16   
   760    785   1    1.0860e-01    3.0183e+05 ;    C15 - H9    
   761    762   1    1.7847e-01    1.7864e+05 ;    C16 - S5    
   761    769   1    1.3986e-01    2.9644e+05 ;    C16 - C23   
   762    763   1    1.7847e-01    1.7864e+05 ;     S5 - C17   
   763    764   1    1.3986e-01    2.9644e+05 ;    C17 - C18   
   763    768   1    1.3986e-01    2.9644e+05 ;    C17 - C22   
   764    765   1    1.3986e-01    2.9644e+05 ;    C18 - C19   
   764    786   1    1.0860e-01    3.0183e+05 ;    C18 - H10   
   765    766   1    1.3986e-01    2.9644e+05 ;    C19 - C20   
   765    787   1    1.0860e-01    3.0183e+05 ;    C19 - H11   
   766    767   1    1.3986e-01    2.9644e+05 ;    C20 - C21   
   766    788   1    1.0860e-01    3.0183e+05 ;    C20 - H12   
   767    768   1    1.3986e-01    2.9644e+05 ;    C21 - C22   
   767    789   1    1.0860e-01    3.0183e+05 ;    C21 - H13   
   768    790   1    1.0860e-01    3.0183e+05 ;    C22 - H14   
   769    770   1    1.3986e-01    2.9644e+05 ;    C23 - C24   
   769    791   1    1.0860e-01    3.0183e+05 ;    C23 - H15   
   770    792   1    1.0860e-01    3.0183e+05 ;    C24 - H16   
   771    772   1    1.3986e-01    2.9644e+05 ;    C25 - C26   
   771    793   1    1.0860e-01    3.0183e+05 ;    C25 - H17   
   772    794   1    1.0860e-01    3.0183e+05 ;    C26 - H18   
   773    774   1    1.3986e-01    2.9644e+05 ;    C27 - C28   
   773    795   1    1.0860e-01    3.0183e+05 ;    C27 - H19   
   774    796   1    1.0860e-01    3.0183e+05 ;    C28 - H20   
   775    776   1    1.3986e-01    2.9644e+05 ;    C29 - C30   
   775    797   1    1.0860e-01    3.0183e+05 ;    C29 - H21   
   776    798   1    1.0860e-01    3.0183e+05 ;    C30 - H22   
   799    800   1    1.7817e-01    1.8005e+05 ;     S1 - C1    
   799    834   1    1.3503e-01    2.3222e+05 ;     S1 - H1    
   800    801   1    1.3986e-01    2.9644e+05 ;     C1 - C2    
   800    833   1    1.3986e-01    2.9644e+05 ;     C1 - C30   
   801    802   1    1.3986e-01    2.9644e+05 ;     C2 - C3    
   801    835   1    1.0860e-01    3.0183e+05 ;     C2 - H2    
   802    803   1    1.3986e-01    2.9644e+05 ;     C3 - C4    
   802    836   1    1.0860e-01    3.0183e+05 ;     C3 - H3    
   803    804   1    1.7847e-01    1.7864e+05 ;     C4 - S2    
   803    832   1    1.3986e-01    2.9644e+05 ;     C4 - C29   
   804    805   1    1.7847e-01    1.7864e+05 ;     S2 - C5    
   805    806   1    1.3986e-01    2.9644e+05 ;     C5 - C6    
   805    831   1    1.3986e-01    2.9644e+05 ;     C5 - C28   
   806    807   1    1.3986e-01    2.9644e+05 ;     C6 - C7    
   806    837   1    1.0860e-01    3.0183e+05 ;     C6 - H4    
   807    808   1    1.3986e-01    2.9644e+05 ;     C7 - C8    
   807    838   1    1.0860e-01    3.0183e+05 ;     C7 - H5    
   808    809   1    1.7847e-01    1.7864e+05 ;     C8 - S3    
   808    830   1    1.3986e-01    2.9644e+05 ;     C8 - C27   
   809    810   1    1.7847e-01    1.7864e+05 ;     S3 - C9    
   810    811   1    1.3986e-01    2.9644e+05 ;     C9 - C10   
   810    829   1    1.3986e-01    2.9644e+05 ;     C9 - C26   
   811    812   1    1.3986e-01    2.9644e+05 ;    C10 - C11   
   811    839   1    1.0860e-01    3.0183e+05 ;    C10 - H6    
   812    813   1    1.3986e-01    2.9644e+05 ;    C11 - C12   
   812    840   1    1.0860e-01    3.0183e+05 ;    C11 - H7    
   813    814   1    1.7847e-01    1.7864e+05 ;    C12 - S4    
   813    828   1    1.3986e-01    2.9644e+05 ;    C12 - C25   
   814    815   1    1.7847e-01    1.7864e+05 ;     S4 - C13   
   815    816   1    1.3986e-01    2.9644e+05 ;    C13 - C14   
   815    827   1    1.3986e-01    2.9644e+05 ;    C13 - C24   
   816    817   1    1.3986e-01    2.9644e+05 ;    C14 - C15   
   816    841   1    1.0860e-01    3.0183e+05 ;    C14 - H8    
   817    818   1    1.3986e-01    2.9644e+05 ;    C15 - C16   
   817    842   1    1.0860e-01    3.0183e+05 ;    C15 - H9    
   818    819   1    1.7847e-01    1.7864e+05 ;    C16 - S5    
   818    826   1    1.3986e-01    2.9644e+05 ;    C16 - C23   
   819    820   1    1.7847e-01    1.7864e+05 ;     S5 - C17   
   820    821   1    1.3986e-01    2.9644e+05 ;    C17 - C18   
   820    825   1    1.3986e-01    2.9644e+05 ;    C17 - C22   
   821    822   1    1.3986e-01    2.9644e+05 ;    C18 - C19   
   821    843   1    1.0860e-01    3.0183e+05 ;    C18 - H10   
   822    823   1    1.3986e-01    2.9644e+05 ;    C19 - C20   
   822    844   1    1.0860e-01    3.0183e+05 ;    C19 - H11   
   823    824   1    1.3986e-01    2.9644e+05 ;    C20 - C21   
   823    845   1    1.0860e-01    3.0183e+05 ;    C20 - H12   
   824    825   1    1.3986e-01    2.9644e+05 ;    C21 - C22   
   824    846   1    1.0860e-01    3.0183e+05 ;    C21 - H13   
   825    847   1    1.0860e-01    3.0183e+05 ;    C22 - H14   
   826    827   1    1.3986e-01    2.9644e+05 ;    C23 - C24   
   826    848   1    1.0860e-01    3.0183e+05 ;    C23 - H15   
   827    849   1    1.0860e-01    3.0183e+05 ;    C24 - H16   
   828    829   1    1.3986e-01    2.9644e+05 ;    C25 - C26   
   828    850   1    1.0860e-01    3.0183e+05 ;    C25 - H17   
   829    851   1    1.0860e-01    3.0183e+05 ;    C26 - H18   
   830    831   1    1.3986e-01    2.9644e+05 ;    C27 - C28   
   830    852   1    1.0860e-01    3.0183e+05 ;    C27 - H19   
   831    853   1    1.0860e-01    3.0183e+05 ;    C28 - H20   
   832    833   1    1.3986e-01    2.9644e+05 ;    C29 - C30   
   832    854   1    1.0860e-01    3.0183e+05 ;    C29 - H21   
   833    855   1    1.0860e-01    3.0183e+05 ;    C30 - H22   
   856    857   1    1.7817e-01    1.8005e+05 ;     S1 - C1    
   856    891   1    1.3503e-01    2.3222e+05 ;     S1 - H1    
   857    858   1    1.3986e-01    2.9644e+05 ;     C1 - C2    
   857    890   1    1.3986e-01    2.9644e+05 ;     C1 - C30   
   858    859   1    1.3986e-01    2.9644e+05 ;     C2 - C3    
   858    892   1    1.0860e-01    3.0183e+05 ;     C2 - H2    
   859    860   1    1.3986e-01    2.9644e+05 ;     C3 - C4    
   859    893   1    1.0860e-01    3.0183e+05 ;     C3 - H3    
   860    861   1    1.7847e-01    1.7864e+05 ;     C4 - S2    
   860    889   1    1.3986e-01    2.9644e+05 ;     C4 - C29   
   861    862   1    1.7847e-01    1.7864e+05 ;     S2 - C5    
   862    863   1    1.3986e-01    2.9644e+05 ;     C5 - C6    
   862    888   1    1.3986e-01    2.9644e+05 ;     C5 - C28   
   863    864   1    1.3986e-01    2.9644e+05 ;     C6 - C7    
   863    894   1    1.0860e-01    3.0183e+05 ;     C6 - H4    
   864    865   1    1.3986e-01    2.9644e+05 ;     C7 - C8    
   864    895   1    1.0860e-01    3.0183e+05 ;     C7 - H5    
   865    866   1    1.7847e-01    1.7864e+05 ;     C8 - S3    
   865    887   1    1.3986e-01    2.9644e+05 ;     C8 - C27   
   866    867   1    1.7847e-01    1.7864e+05 ;     S3 - C9    
   867    868   1    1.3986e-01    2.9644e+05 ;     C9 - C10   
   867    886   1    1.3986e-01    2.9644e+05 ;     C9 - C26   
   868    869   1    1.3986e-01    2.9644e+05 ;    C10 - C11   
   868    896   1    1.0860e-01    3.0183e+05 ;    C10 - H6    
   869    870   1    1.3986e-01    2.9644e+05 ;    C11 - C12   
   869    897   1    1.0860e-01    3.0183e+05 ;    C11 - H7    
   870    871   1    1.7847e-01    1.7864e+05 ;    C12 - S4    
   870    885   1    1.3986e-01    2.9644e+05 ;    C12 - C25   
   871    872   1    1.7847e-01    1.7864e+05 ;     S4 - C13   
   872    873   1    1.3986e-01    2.9644e+05 ;    C13 - C14   
   872    884   1    1.3986e-01    2.9644e+05 ;    C13 - C24   
   873    874   1    1.3986e-01    2.9644e+05 ;    C14 - C15   
   873    898   1    1.0860e-01    3.0183e+05 ;    C14 - H8    
   874    875   1    1.3986e-01    2.9644e+05 ;    C15 - C16   
   874    899   1    1.0860e-01    3.0183e+05 ;    C15 - H9    
   875    876   1    1.7847e-01    1.7864e+05 ;    C16 - S5    
   875    883   1    1.3986e-01    2.9644e+05 ;    C16 - C23   
   876    877   1    1.7847e-01    1.7864e+05 ;     S5 - C17   
   877    878   1    1.3986e-01    2.9644e+05 ;    C17 - C18   
   877    882   1    1.3986e-01    2.9644e+05 ;    C17 - C22   
   878    879   1    1.3986e-01    2.9644e+05 ;    C18 - C19   
   878    900   1    1.0860e-01    3.0183e+05 ;    C18 - H10   
   879    880   1    1.3986e-01    2.9644e+05 ;    C19 - C20   
   879    901   1    1.0860e-01    3.0183e+05 ;    C19 - H11   
   880    881   1    1.3986e-01    2.9644e+05 ;    C20 - C21   
   880    902   1    1.0860e-01    3.0183e+05 ;    C20 - H12   
   881    882   1    1.3986e-01    2.9644e+05 ;    C21 - C22   
   881    903   1    1.0860e-01    3.0183e+05 ;    C21 - H13   
   882    904   1    1.0860e-01    3.0183e+05 ;    C22 - H14   
   883    884   1    1.3986e-01    2.9644e+05 ;    C23 - C24   
   883    905   1    1.0860e-01    3.0183e+05 ;    C23 - H15   
   884    906   1    1.0860e-01    3.0183e+05 ;    C24 - H16   
   885    886   1    1.3986e-01    2.9644e+05 ;    C25 - C26   
   885    907   1    1.0860e-01    3.0183e+05 ;    C25 - H17   
   886    908   1    1.0860e-01    3.0183e+05 ;    C26 - H18   
   887    888   1    1.3986e-01    2.9644e+05 ;    C27 - C28   
   887    909   1    1.0860e-01    3.0183e+05 ;    C27 - H19   
   888    910   1    1.0860e-01    3.0183e+05 ;    C28 - H20   
   889    890   1    1.3986e-01    2.9644e+05 ;    C29 - C30   
   889    911   1    1.0860e-01    3.0183e+05 ;    C29 - H21   
   890    912   1    1.0860e-01    3.0183e+05 ;    C30 - H22   
   913    914   1    1.7817e-01    1.8005e+05 ;     S1 - C1    
   913    948   1    1.3503e-01    2.3222e+05 ;     S1 - H1    
   914    915   1    1.3986e-01    2.9644e+05 ;     C1 - C2    
   914    947   1    1.3986e-01    2.9644e+05 ;     C1 - C30   
   915    916   1    1.3986e-01    2.9644e+05 ;     C2 - C3    
   915    949   1    1.0860e-01    3.0183e+05 ;     C2 - H2    
   916    917   1    1.3986e-01    2.9644e+05 ;     C3 - C4    
   916    950   1    1.0860e-01    3.0183e+05 ;     C3 - H3    
   917    918   1    1.7847e-01    1.7864e+05 ;     C4 - S2    
   917    946   1    1.3986e-01    2.9644e+05 ;     C4 - C29   
   918    919   1    1.7847e-01    1.7864e+05 ;     S2 - C5    
   919    920   1    1.3986e-01    2.9644e+05 ;     C5 - C6    
   919    945   1    1.3986e-01    2.9644e+05 ;     C5 - C28   
   920    921   1    1.3986e-01    2.9644e+05 ;     C6 - C7    
   920    951   1    1.0860e-01    3.0183e+05 ;     C6 - H4    
   921    922   1    1.3986e-01    2.9644e+05 ;     C7 - C8    
   921    952   1    1.0860e-01    3.0183e+05 ;     C7 - H5    
   922    923   1    1.7847e-01    1.7864e+05 ;     C8 - S3    
   922    944   1    1.3986e-01    2.9644e+05 ;     C8 - C27   
   923    924   1    1.7847e-01    1.7864e+05 ;     S3 - C9    
   924    925   1    1.3986e-01    2.9644e+05 ;     C9 - C10   
   924    943   1    1.3986e-01    2.9644e+05 ;     C9 - C26   
   925    926   1    1.3986e-01    2.9644e+05 ;    C10 - C11   
   925    953   1    1.0860e-01    3.0183e+05 ;    C10 - H6    
   926    927   1    1.3986e-01    2.9644e+05 ;    C11 - C12   
   926    954   1    1.0860e-01    3.0183e+05 ;    C11 - H7    
   927    928   1    1.7847e-01    1.7864e+05 ;    C12 - S4    
   927    942   1    1.3986e-01    2.9644e+05 ;    C12 - C25   
   928    929   1    1.7847e-01    1.7864e+05 ;     S4 - C13   
   929    930   1    1.3986e-01    2.9644e+05 ;    C13 - C14   
   929    941   1    1.3986e-01    2.9644e+05 ;    C13 - C24   
   930    931   1    1.3986e-01    2.9644e+05 ;    C14 - C15   
   930    955   1    1.0860e-01    3.0183e+05 ;    C14 - H8    
   931    932   1    1.3986e-01    2.9644e+05 ;    C15 - C16   
   931    956   1    1.0860e-01    3.0183e+05 ;    C15 - H9    
   932    933   1    1.7847e-01    1.7864e+05 ;    C16 - S5    
   932    940   1    1.3986e-01    2.9644e+05 ;    C16 - C23   
   933    934   1    1.7847e-01    1.7864e+05 ;     S5 - C17   
   934    935   1    1.3986e-01    2.9644e+05 ;    C17 - C18   
   934    939   1    1.3986e-01    2.9644e+05 ;    C17 - C22   
   935    936   1    1.3986e-01    2.9644e+05 ;    C18 - C19   
   935    957   1    1.0860e-01    3.0183e+05 ;    C18 - H10   
   936    937   1    1.3986e-01    2.9644e+05 ;    C19 - C20   
   936    958   1    1.0860e-01    3.0183e+05 ;    C19 - H11   
   937    938   1    1.3986e-01    2.9644e+05 ;    C20 - C21   
   937    959   1    1.0860e-01    3.0183e+05 ;    C20 - H12   
   938    939   1    1.3986e-01    2.9644e+05 ;    C21 - C22   
   938    960   1    1.0860e-01    3.0183e+05 ;    C21 - H13   
   939    961   1    1.0860e-01    3.0183e+05 ;    C22 - H14   
   940    941   1    1.3986e-01    2.9644e+05 ;    C23 - C24   
   940    962   1    1.0860e-01    3.0183e+05 ;    C23 - H15   
   941    963   1    1.0860e-01    3.0183e+05 ;    C24 - H16   
   942    943   1    1.3986e-01    2.9644e+05 ;    C25 - C26   
   942    964   1    1.0860e-01    3.0183e+05 ;    C25 - H17   
   943    965   1    1.0860e-01    3.0183e+05 ;    C26 - H18   
   944    945   1    1.3986e-01    2.9644e+05 ;    C27 - C28   
   944    966   1    1.0860e-01    3.0183e+05 ;    C27 - H19   
   945    967   1    1.0860e-01    3.0183e+05 ;    C28 - H20   
   946    947   1    1.3986e-01    2.9644e+05 ;    C29 - C30   
   946    968   1    1.0860e-01    3.0183e+05 ;    C29 - H21   
   947    969   1    1.0860e-01    3.0183e+05 ;    C30 - H22   
   970    971   1    1.7817e-01    1.8005e+05 ;     S1 - C1    
   970   1005   1    1.3503e-01    2.3222e+05 ;     S1 - H1    
   971    972   1    1.3986e-01    2.9644e+05 ;     C1 - C2    
   971   1004   1    1.3986e-01    2.9644e+05 ;     C1 - C30   
   972    973   1    1.3986e-01    2.9644e+05 ;     C2 - C3    
   972   1006   1    1.0860e-01    3.0183e+05 ;     C2 - H2    
   973    974   1    1.3986e-01    2.9644e+05 ;     C3 - C4    
   973   1007   1    1.0860e-01    3.0183e+05 ;     C3 - H3    
   974    975   1    1.7847e-01    1.7864e+05 ;     C4 - S2    
   974   1003   1    1.3986e-01    2.9644e+05 ;     C4 - C29   
   975    976   1    1.7847e-01    1.7864e+05 ;     S2 - C5    
   976    977   1    1.3986e-01    2.9644e+05 ;     C5 - C6    
   976   1002   1    1.3986e-01    2.9644e+05 ;     C5 - C28   
   977    978   1    1.3986e-01    2.9644e+05 ;     C6 - C7    
   977   1008   1    1.0860e-01    3.0183e+05 ;     C6 - H4    
   978    979   1    1.3986e-01    2.9644e+05 ;     C7 - C8    
   978   1009   1    1.0860e-01    3.0183e+05 ;     C7 - H5    
   979    980   1    1.7847e-01    1.7864e+05 ;     C8 - S3    
   979   1001   1    1.3986e-01    2.9644e+05 ;     C8 - C27   
   980    981   1    1.7847e-01    1.7864e+05 ;     S3 - C9    
   981    982   1    1.3986e-01    2.9644e+05 ;     C9 - C10   
   981   1000   1    1.3986e-01    2.9644e+05 ;     C9 - C26   
   982    983   1    1.3986e-01    2.9644e+05 ;    C10 - C11   
   982   1010   1    1.0860e-01    3.0183e+05 ;    C10 - H6    
   983    984   1    1.3986e-01    2.9644e+05 ;    C11 - C12   
   983   1011   1    1.0860e-01    3.0183e+05 ;    C11 - H7    
   984    985   1    1.7847e-01    1.7864e+05 ;    C12 - S4    
   984    999   1    1.3986e-01    2.9644e+05 ;    C12 - C25   
   985    986   1    1.7847e-01    1.7864e+05 ;     S4 - C13   
   986    987   1    1.3986e-01    2.9644e+05 ;    C13 - C14   
   986    998   1    1.3986e-01    2.9644e+05 ;    C13 - C24   
   987    988   1    1.3986e-01    2.9644e+05 ;    C14 - C15   
   987   1012   1    1.0860e-01    3.0183e+05 ;    C14 - H8    
   988    989   1    1.3986e-01    2.9644e+05 ;    C15 - C16   
   988   1013   1    1.0860e-01    3.0183e+05 ;    C15 - H9    
   989    990   1    1.7847e-01    1.7864e+05 ;    C16 - S5    
   989    997   1    1.3986e-01    2.9644e+05 ;    C16 - C23   
   990    991   1    1.7847e-01    1.7864e+05 ;     S5 - C17   
   991    992   1    1.3986e-01    2.9644e+05 ;    C17 - C18   
   991    996   1    1.3986e-01    2.9644e+05 ;    C17 - C22   
   992    993   1    1.3986e-01    2.9644e+05 ;    C18 - C19   
   992   1014   1    1.0860e-01    3.0183e+05 ;    C18 - H10   
   993    994   1    1.3986e-01    2.9644e+05 ;    C19 - C20   
   993   1015   1    1.0860e-01    3.0183e+05 ;    C19 - H11   
   994    995   1    1.3986e-01    2.9644e+05 ;    C20 - C21   
   994   1016   1    1.0860e-01    3.0183e+05 ;    C20 - H12   
   995    996   1    1.3986e-01    2.9644e+05 ;    C21 - C22   
   995   1017   1    1.0860e-01    3.0183e+05 ;    C21 - H13   
   996   1018   1    1.0860e-01    3.0183e+05 ;    C22 - H14   
   997    998   1    1.3986e-01    2.9644e+05 ;    C23 - C24   
   997   1019   1    1.0860e-01    3.0183e+05 ;    C23 - H15   
   998   1020   1    1.0860e-01    3.0183e+05 ;    C24 - H16   
   999   1000   1    1.3986e-01    2.9644e+05 ;    C25 - C26   
   999   1021   1    1.0860e-01    3.0183e+05 ;    C25 - H17   
  1000   1022   1    1.0860e-01    3.0183e+05 ;    C26 - H18   
  1001   1002   1    1.3986e-01    2.9644e+05 ;    C27 - C28   
  1001   1023   1    1.0860e-01    3.0183e+05 ;    C27 - H19   
  1002   1024   1    1.0860e-01    3.0183e+05 ;    C28 - H20   
  1003   1004   1    1.3986e-01    2.9644e+05 ;    C29 - C30   
  1003   1025   1    1.0860e-01    3.0183e+05 ;    C29 - H21   
  1004   1026   1    1.0860e-01    3.0183e+05 ;    C30 - H22   
  1027   1028   1    1.7817e-01    1.8005e+05 ;     S1 - C1    
  1027   1062   1    1.3503e-01    2.3222e+05 ;     S1 - H1    
  1028   1029   1    1.3986e-01    2.9644e+05 ;     C1 - C2    
  1028   1061   1    1.3986e-01    2.9644e+05 ;     C1 - C30   
  1029   1030   1    1.3986e-01    2.9644e+05 ;     C2 - C3    
  1029   1063   1    1.0860e-01    3.0183e+05 ;     C2 - H2    
  1030   1031   1    1.3986e-01    2.9644e+05 ;     C3 - C4    
  1030   1064   1    1.0860e-01    3.0183e+05 ;     C3 - H3    
  1031   1032   1    1.7847e-01    1.7864e+05 ;     C4 - S2    
  1031   1060   1    1.3986e-01    2.9644e+05 ;     C4 - C29   
  1032   1033   1    1.7847e-01    1.7864e+05 ;     S2 - C5    
  1033   1034   1    1.3986e-01    2.9644e+05 ;     C5 - C6    
  1033   1059   1    1.3986e-01    2.9644e+05 ;     C5 - C28   
  1034   1035   1    1.3986e-01    2.9644e+05 ;     C6 - C7    
  1034   1065   1    1.0860e-01    3.0183e+05 ;     C6 - H4    
  1035   1036   1    1.3986e-01    2.9644e+05 ;     C7 - C8    
  1035   1066   1    1.0860e-01    3.0183e+05 ;     C7 - H5    
  1036   1037   1    1.7847e-01    1.7864e+05 ;     C8 - S3    
  1036   1058   1    1.3986e-01    2.9644e+05 ;     C8 - C27   
  1037   1038   1    1.7847e-01    1.7864e+05 ;     S3 - C9    
  1038   1039   1    1.3986e-01    2.9644e+05 ;     C9 - C10   
  1038   1057   1    1.3986e-01    2.9644e+05 ;     C9 - C26   
  1039   1040   1    1.3986e-01    2.9644e+05 ;    C10 - C11   
  1039   1067   1    1.0860e-01    3.0183e+05 ;    C10 - H6    
  1040   1041   1    1.3986e-01    2.9644e+05 ;    C11 - C12   
  1040   1068   1    1.0860e-01    3.0183e+05 ;    C11 - H7    
  1041   1042   1    1.7847e-01    1.7864e+05 ;    C12 - S4    
  1041   1056   1    1.3986e-01    2.9644e+05 ;    C12 - C25   
  1042   1043   1    1.7847e-01    1.7864e+05 ;     S4 - C13   
  1043   1044   1    1.3986e-01    2.9644e+05 ;    C13 - C14   
  1043   1055   1    1.3986e-01    2.9644e+05 ;    C13 - C24   
  1044   1045   1    1.3986e-01    2.9644e+05 ;    C14 - C15   
  1044   1069   1    1.0860e-01    3.0183e+05 ;    C14 - H8    
  1045   1046   1    1.3986e-01    2.9644e+05 ;    C15 - C16   
  1045   1070   1    1.0860e-01    3.0183e+05 ;    C15 - H9    
  1046   1047   1    1.7847e-01    1.7864e+05 ;    C16 - S5    
  1046   1054   1    1.3986e-01    2.9644e+05 ;    C16 - C23   
  1047   1048   1    1.7847e-01    1.7864e+05 ;     S5 - C17   
  1048   1049   1    1.3986e-01    2.9644e+05 ;    C17 - C18   
  1048   1053   1    1.3986e-01    2.9644e+05 ;    C17 - C22   
  1049   1050   1    1.3986e-01    2.9644e+05 ;    C18 - C19   
  1049   1071   1    1.0860e-01    3.0183e+05 ;    C18 - H10   
  1050   1051   1    1.3986e-01    2.9644e+05 ;    C19 - C20   
  1050   1072   1    1.0860e-01    3.0183e+05 ;    C19 - H11   
  1051   1052   1    1.3986e-01    2.9644e+05 ;    C20 - C21   
  1051   1073   1    1.0860e-01    3.0183e+05 ;    C20 - H12   
  1052   1053   1    1.3986e-01    2.9644e+05 ;    C21 - C22   
  1052   1074   1    1.0860e-01    3.0183e+05 ;    C21 - H13   
  1053   1075   1    1.0860e-01    3.0183e+05 ;    C22 - H14   
  1054   1055   1    1.3986e-01    2.9644e+05 ;    C23 - C24   
  1054   1076   1    1.0860e-01    3.0183e+05 ;    C23 - H15   
  1055   1077   1    1.0860e-01    3.0183e+05 ;    C24 - H16   
  1056   1057   1    1.3986e-01    2.9644e+05 ;    C25 - C26   
  1056   1078   1    1.0860e-01    3.0183e+05 ;    C25 - H17   
  1057   1079   1    1.0860e-01    3.0183e+05 ;    C26 - H18   
  1058   1059   1    1.3986e-01    2.9644e+05 ;    C27 - C28   
  1058   1080   1    1.0860e-01    3.0183e+05 ;    C27 - H19   
  1059   1081   1    1.0860e-01    3.0183e+05 ;    C28 - H20   
  1060   1061   1    1.3986e-01    2.9644e+05 ;    C29 - C30   
  1060   1082   1    1.0860e-01    3.0183e+05 ;    C29 - H21   
  1061   1083   1    1.0860e-01    3.0183e+05 ;    C30 - H22   
  1084   1085   1    1.7817e-01    1.8005e+05 ;     S1 - C1    
  1084   1119   1    1.3503e-01    2.3222e+05 ;     S1 - H1    
  1085   1086   1    1.3986e-01    2.9644e+05 ;     C1 - C2    
  1085   1118   1    1.3986e-01    2.9644e+05 ;     C1 - C30   
  1086   1087   1    1.3986e-01    2.9644e+05 ;     C2 - C3    
  1086   1120   1    1.0860e-01    3.0183e+05 ;     C2 - H2    
  1087   1088   1    1.3986e-01    2.9644e+05 ;     C3 - C4    
  1087   1121   1    1.0860e-01    3.0183e+05 ;     C3 - H3    
  1088   1089   1    1.7847e-01    1.7864e+05 ;     C4 - S2    
  1088   1117   1    1.3986e-01    2.9644e+05 ;     C4 - C29   
  1089   1090   1    1.7847e-01    1.7864e+05 ;     S2 - C5    
  1090   1091   1    1.3986e-01    2.9644e+05 ;     C5 - C6    
  1090   1116   1    1.3986e-01    2.9644e+05 ;     C5 - C28   
  1091   1092   1    1.3986e-01    2.9644e+05 ;     C6 - C7    
  1091   1122   1    1.0860e-01    3.0183e+05 ;     C6 - H4    
  1092   1093   1    1.3986e-01    2.9644e+05 ;     C7 - C8    
  1092   1123   1    1.0860e-01    3.0183e+05 ;     C7 - H5    
  1093   1094   1    1.7847e-01    1.7864e+05 ;     C8 - S3    
  1093   1115   1    1.3986e-01    2.9644e+05 ;     C8 - C27   
  1094   1095   1    1.7847e-01    1.7864e+05 ;     S3 - C9    
  1095   1096   1    1.3986e-01    2.9644e+05 ;     C9 - C10   
  1095   1114   1    1.3986e-01    2.9644e+05 ;     C9 - C26   
  1096   1097   1    1.3986e-01    2.9644e+05 ;    C10 - C11   
  1096   1124   1    1.0860e-01    3.0183e+05 ;    C10 - H6    
  1097   1098   1    1.3986e-01    2.9644e+05 ;    C11 - C12   
  1097   1125   1    1.0860e-01    3.0183e+05 ;    C11 - H7    
  1098   1099   1    1.7847e-01    1.7864e+05 ;    C12 - S4    
  1098   1113   1    1.3986e-01    2.9644e+05 ;    C12 - C25   
  1099   1100   1    1.7847e-01    1.7864e+05 ;     S4 - C13   
  1100   1101   1    1.3986e-01    2.9644e+05 ;    C13 - C14   
  1100   1112   1    1.3986e-01    2.9644e+05 ;    C13 - C24   
  1101   1102   1    1.3986e-01    2.9644e+05 ;    C14 - C15   
  1101   1126   1    1.0860e-01    3.0183e+05 ;    C14 - H8    
  1102   1103   1    1.3986e-01    2.9644e+05 ;    C15 - C16   
  1102   1127   1    1.0860e-01    3.0183e+05 ;    C15 - H9    
  1103   1104   1    1.7847e-01    1.7864e+05 ;    C16 - S5    
  1103   1111   1    1.3986e-01    2.9644e+05 ;    C16 - C23   
  1104   1105   1    1.7847e-01    1.7864e+05 ;     S5 - C17   
  1105   1106   1    1.3986e-01    2.9644e+05 ;    C17 - C18   
  1105   1110   1    1.3986e-01    2.9644e+05 ;    C17 - C22   
  1106   1107   1    1.3986e-01    2.9644e+05 ;    C18 - C19   
  1106   1128   1    1.0860e-01    3.0183e+05 ;    C18 - H10   
  1107   1108   1    1.3986e-01    2.9644e+05 ;    C19 - C20   
  1107   1129   1    1.0860e-01    3.0183e+05 ;    C19 - H11   
  1108   1109   1    1.3986e-01    2.9644e+05 ;    C20 - C21   
  1108   1130   1    1.0860e-01    3.0183e+05 ;    C20 - H12   
  1109   1110   1    1.3986e-01    2.9644e+05 ;    C21 - C22   
  1109   1131   1    1.0860e-01    3.0183e+05 ;    C21 - H13   
  1110   1132   1    1.0860e-01    3.0183e+05 ;    C22 - H14   
  1111   1112   1    1.3986e-01    2.9644e+05 ;    C23 - C24   
  1111   1133   1    1.0860e-01    3.0183e+05 ;    C23 - H15   
  1112   1134   1    1.0860e-01    3.0183e+05 ;    C24 - H16   
  1113   1114   1    1.3986e-01    2.9644e+05 ;    C25 - C26   
  1113   1135   1    1.0860e-01    3.0183e+05 ;    C25 - H17   
  1114   1136   1    1.0860e-01    3.0183e+05 ;    C26 - H18   
  1115   1116   1    1.3986e-01    2.9644e+05 ;    C27 - C28   
  1115   1137   1    1.0860e-01    3.0183e+05 ;    C27 - H19   
  1116   1138   1    1.0860e-01    3.0183e+05 ;    C28 - H20   
  1117   1118   1    1.3986e-01    2.9644e+05 ;    C29 - C30   
  1117   1139   1    1.0860e-01    3.0183e+05 ;    C29 - H21   
  1118   1140   1    1.0860e-01    3.0183e+05 ;    C30 - H22   

[ pairs ]
;   ai     aj    funct
     1      4      1 ;     S1 - C3    
     1     34      1 ;     S1 - C29   
     1     37      1 ;     S1 - H2    
     1     57      1 ;     S1 - H22   
     2      5      1 ;     C1 - C4    
     2     38      1 ;     C1 - H3    
     2     56      1 ;     C1 - H21   
     3      6      1 ;     C2 - S2    
     3     34      1 ;     C2 - C29   
     3     57      1 ;     C2 - H22   
     4      7      1 ;     C3 - C5    
     4     35      1 ;     C3 - C30   
     4     56      1 ;     C3 - H21   
     5      8      1 ;     C4 - C6    
     5     33      1 ;     C4 - C28   
     5     37      1 ;     C4 - H2    
     5     57      1 ;     C4 - H22   
     6      9      1 ;     S2 - C7    
     6     32      1 ;     S2 - C27   
     6     35      1 ;     S2 - C30   
     6     38      1 ;     S2 - H3    
     6     39      1 ;     S2 - H4    
     6     55      1 ;     S2 - H20   
     6     56      1 ;     S2 - H21   
     7     10      1 ;     C5 - C8    
     7     34      1 ;     C5 - C29   
     7     40      1 ;     C5 - H5    
     7     54      1 ;     C5 - H19   
     8     11      1 ;     C6 - S3    
     8     32      1 ;     C6 - C27   
     8     55      1 ;     C6 - H20   
     9     12      1 ;     C7 - C9    
     9     33      1 ;     C7 - C28   
     9     54      1 ;     C7 - H19   
    10     13      1 ;     C8 - C10   
    10     31      1 ;     C8 - C26   
    10     39      1 ;     C8 - H4    
    10     55      1 ;     C8 - H20   
    11     14      1 ;     S3 - C11   
    11     30      1 ;     S3 - C25   
    11     33      1 ;     S3 - C28   
    11     40      1 ;     S3 - H5    
    11     41      1 ;     S3 - H6    
    11     53      1 ;     S3 - H18   
    11     54      1 ;     S3 - H19   
    12     15      1 ;     C9 - C12   
    12     32      1 ;     C9 - C27   
    12     42      1 ;     C9 - H7    
    12     52      1 ;     C9 - H17   
    13     16      1 ;    C10 - S4    
    13     30      1 ;    C10 - C25   
    13     53      1 ;    C10 - H18   
    14     17      1 ;    C11 - C13   
    14     31      1 ;    C11 - C26   
    14     52      1 ;    C11 - H17   
    15     18      1 ;    C12 - C14   
    15     29      1 ;    C12 - C24   
    15     41      1 ;    C12 - H6    
    15     53      1 ;    C12 - H18   
    16     19      1 ;     S4 - C15   
    16     28      1 ;     S4 - C23   
    16     31      1 ;     S4 - C26   
    16     42      1 ;     S4 - H7    
    16     43      1 ;     S4 - H8    
    16     51      1 ;     S4 - H16   
    16     52      1 ;     S4 - H17   
    17     20      1 ;    C13 - C16   
    17     30      1 ;    C13 - C25   
    17     44      1 ;    C13 - H9    
    17     50      1 ;    C13 - H15   
    18     21      1 ;    C14 - S5    
    18     28      1 ;    C14 - C23   
    18     51      1 ;    C14 - H16   
    19     22      1 ;    C15 - C17   
    19     29      1 ;    C15 - C24   
    19     50      1 ;    C15 - H15   
    20     23      1 ;    C16 - C18   
    20     27      1 ;    C16 - C22   
    20     43      1 ;    C16 - H8    
    20     51      1 ;    C16 - H16   
    21     24      1 ;     S5 - C19   
    21     26      1 ;     S5 - C21   
    21     29      1 ;     S5 - C24   
    21     44      1 ;     S5 - H9    
    21     45      1 ;     S5 - H10   
    21     49      1 ;     S5 - H14   
    21     50      1 ;     S5 - H15   
    22     25      1 ;    C17 - C20   
    22     28      1 ;    C17 - C23   
    22     46      1 ;    C17 - H11   
    22     48      1 ;    C17 - H13   
    23     26      1 ;    C18 - C21   
    23     47      1 ;    C18 - H12   
    23     49      1 ;    C18 - H14   
    24     27      1 ;    C19 - C22   
    24     48      1 ;    C19 - H13   
    25     45      1 ;    C20 - H10   
    25     49      1 ;    C20 - H14   
    26     46      1 ;    C21 - H11   
    27     45      1 ;    C22 - H10   
    27     47      1 ;    C22 - H12   
    28     44      1 ;    C23 - H9    
    29     43      1 ;    C24 - H8    
    30     42      1 ;    C25 - H7    
    31     41      1 ;    C26 - H6    
    32     40      1 ;    C27 - H5    
    33     39      1 ;    C28 - H4    
    34     38      1 ;    C29 - H3    
    35     37      1 ;    C30 - H2    
    36      3      1 ;     H1 - C2    
    36     35      1 ;     H1 - C30   
    37     38      1 ;     H2 - H3    
    39     40      1 ;     H4 - H5    
    41     42      1 ;     H6 - H7    
    43     44      1 ;     H8 - H9    
    45     46      1 ;    H10 - H11   
    46     47      1 ;    H11 - H12   
    47     48      1 ;    H12 - H13   
    48     49      1 ;    H13 - H14   
    50     51      1 ;    H15 - H16   
    52     53      1 ;    H17 - H18   
    54     55      1 ;    H19 - H20   
    56     57      1 ;    H21 - H22   
    58     61      1 ;     S1 - C3    
    58     91      1 ;     S1 - C29   
    58     94      1 ;     S1 - H2    
    58    114      1 ;     S1 - H22   
    59     62      1 ;     C1 - C4    
    59     95      1 ;     C1 - H3    
    59    113      1 ;     C1 - H21   
    60     63      1 ;     C2 - S2    
    60     91      1 ;     C2 - C29   
    60     93      1 ;     C2 - H1    
    60    114      1 ;     C2 - H22   
    61     64      1 ;     C3 - C5    
    61     92      1 ;     C3 - C30   
    61    113      1 ;     C3 - H21   
    62     65      1 ;     C4 - C6    
    62     90      1 ;     C4 - C28   
    62     94      1 ;     C4 - H2    
    62    114      1 ;     C4 - H22   
    63     66      1 ;     S2 - C7    
    63     89      1 ;     S2 - C27   
    63     92      1 ;     S2 - C30   
    63     95      1 ;     S2 - H3    
    63     96      1 ;     S2 - H4    
    63    112      1 ;     S2 - H20   
    63    113      1 ;     S2 - H21   
    64     67      1 ;     C5 - C8    
    64     91      1 ;     C5 - C29   
    64     97      1 ;     C5 - H5    
    64    111      1 ;     C5 - H19   
    65     68      1 ;     C6 - S3    
    65     89      1 ;     C6 - C27   
    65    112      1 ;     C6 - H20   
    66     69      1 ;     C7 - C9    
    66     90      1 ;     C7 - C28   
    66    111      1 ;     C7 - H19   
    67     70      1 ;     C8 - C10   
    67     88      1 ;     C8 - C26   
    67     96      1 ;     C8 - H4    
    67    112      1 ;     C8 - H20   
    68     71      1 ;     S3 - C11   
    68     87      1 ;     S3 - C25   
    68     90      1 ;     S3 - C28   
    68     97      1 ;     S3 - H5    
    68     98      1 ;     S3 - H6    
    68    110      1 ;     S3 - H18   
    68    111      1 ;     S3 - H19   
    69     72      1 ;     C9 - C12   
    69     89      1 ;     C9 - C27   
    69     99      1 ;     C9 - H7    
    69    109      1 ;     C9 - H17   
    70     73      1 ;    C10 - S4    
    70     87      1 ;    C10 - C25   
    70    110      1 ;    C10 - H18   
    71     74      1 ;    C11 - C13   
    71     88      1 ;    C11 - C26   
    71    109      1 ;    C11 - H17   
    72     75      1 ;    C12 - C14   
    72     86      1 ;    C12 - C24   
    72     98      1 ;    C12 - H6    
    72    110      1 ;    C12 - H18   
    73     76      1 ;     S4 - C15   
    73     85      1 ;     S4 - C23   
    73     88      1 ;     S4 - C26   
    73     99      1 ;     S4 - H7    
    73    100      1 ;     S4 - H8    
    73    108      1 ;     S4 - H16   
    73    109      1 ;     S4 - H17   
    74     77      1 ;    C13 - C16   
    74     87      1 ;    C13 - C25   
    74    101      1 ;    C13 - H9    
    74    107      1 ;    C13 - H15   
    75     78      1 ;    C14 - S5    
    75     85      1 ;    C14 - C23   
    75    108      1 ;    C14 - H16   
    76     79      1 ;    C15 - C17   
    76     86      1 ;    C15 - C24   
    76    107      1 ;    C15 - H15   
    77     80      1 ;    C16 - C18   
    77     84      1 ;    C16 - C22   
    77    100      1 ;    C16 - H8    
    77    108      1 ;    C16 - H16   
    78     81      1 ;     S5 - C19   
    78     83      1 ;     S5 - C21   
    78     86      1 ;     S5 - C24   
    78    101      1 ;     S5 - H9    
    78    102      1 ;     S5 - H10   
    78    106      1 ;     S5 - H14   
    78    107      1 ;     S5 - H15   
    79     82      1 ;    C17 - C20   
    79     85      1 ;    C17 - C23   
    79    103      1 ;    C17 - H11   
    79    105      1 ;    C17 - H13   
    80     83      1 ;    C18 - C21   
    80    104      1 ;    C18 - H12   
    80    106      1 ;    C18 - H14   
    81     84      1 ;    C19 - C22   
    81    105      1 ;    C19 - H13   
    82    102      1 ;    C20 - H10   
    82    106      1 ;    C20 - H14   
    83    103      1 ;    C21 - H11   
    84    102      1 ;    C22 - H10   
    84    104      1 ;    C22 - H12   
    85    101      1 ;    C23 - H9    
    86    100      1 ;    C24 - H8    
    87     99      1 ;    C25 - H7    
    88     98      1 ;    C26 - H6    
    89     97      1 ;    C27 - H5    
    90     96      1 ;    C28 - H4    
    91     95      1 ;    C29 - H3    
    92     93      1 ;    C30 - H1    
    92     94      1 ;    C30 - H2    
    94     95      1 ;     H2 - H3    
    96     97      1 ;     H4 - H5    
    98     99      1 ;     H6 - H7    
   100    101      1 ;     H8 - H9    
   102    103      1 ;    H10 - H11   
   103    104      1 ;    H11 - H12   
   104    105      1 ;    H12 - H13   
   105    106      1 ;    H13 - H14   
   107    108      1 ;    H15 - H16   
   109    110      1 ;    H17 - H18   
   111    112      1 ;    H19 - H20   
   113    114      1 ;    H21 - H22   
   115    118      1 ;     S1 - C3    
   115    148      1 ;     S1 - C29   
   115    151      1 ;     S1 - H2    
   115    171      1 ;     S1 - H22   
   116    119      1 ;     C1 - C4    
   116    152      1 ;     C1 - H3    
   116    170      1 ;     C1 - H21   
   117    120      1 ;     C2 - S2    
   117    148      1 ;     C2 - C29   
   117    150      1 ;     C2 - H1    
   117    171      1 ;     C2 - H22   
   118    121      1 ;     C3 - C5    
   118    149      1 ;     C3 - C30   
   118    170      1 ;     C3 - H21   
   119    122      1 ;     C4 - C6    
   119    147      1 ;     C4 - C28   
   119    151      1 ;     C4 - H2    
   119    171      1 ;     C4 - H22   
   120    123      1 ;     S2 - C7    
   120    146      1 ;     S2 - C27   
   120    149      1 ;     S2 - C30   
   120    152      1 ;     S2 - H3    
   120    153      1 ;     S2 - H4    
   120    169      1 ;     S2 - H20   
   120    170      1 ;     S2 - H21   
   121    124      1 ;     C5 - C8    
   121    148      1 ;     C5 - C29   
   121    154      1 ;     C5 - H5    
   121    168      1 ;     C5 - H19   
   122    125      1 ;     C6 - S3    
   122    146      1 ;     C6 - C27   
   122    169      1 ;     C6 - H20   
   123    126      1 ;     C7 - C9    
   123    147      1 ;     C7 - C28   
   123    168      1 ;     C7 - H19   
   124    127      1 ;     C8 - C10   
   124    145      1 ;     C8 - C26   
   124    153      1 ;     C8 - H4    
   124    169      1 ;     C8 - H20   
   125    128      1 ;     S3 - C11   
   125    144      1 ;     S3 - C25   
   125    147      1 ;     S3 - C28   
   125    154      1 ;     S3 - H5    
   125    155      1 ;     S3 - H6    
   125    167      1 ;     S3 - H18   
   125    168      1 ;     S3 - H19   
   126    129      1 ;     C9 - C12   
   126    146      1 ;     C9 - C27   
   126    156      1 ;     C9 - H7    
   126    166      1 ;     C9 - H17   
   127    130      1 ;    C10 - S4    
   127    144      1 ;    C10 - C25   
   127    167      1 ;    C10 - H18   
   128    131      1 ;    C11 - C13   
   128    145      1 ;    C11 - C26   
   128    166      1 ;    C11 - H17   
   129    132      1 ;    C12 - C14   
   129    143      1 ;    C12 - C24   
   129    155      1 ;    C12 - H6    
   129    167      1 ;    C12 - H18   
   130    133      1 ;     S4 - C15   
   130    142      1 ;     S4 - C23   
   130    145      1 ;     S4 - C26   
   130    156      1 ;     S4 - H7    
   130    157      1 ;     S4 - H8    
   130    165      1 ;     S4 - H16   
   130    166      1 ;     S4 - H17   
   131    134      1 ;    C13 - C16   
   131    144      1 ;    C13 - C25   
   131    158      1 ;    C13 - H9    
   131    164      1 ;    C13 - H15   
   132    135      1 ;    C14 - S5    
   132    142      1 ;    C14 - C23   
   132    165      1 ;    C14 - H16   
   133    136      1 ;    C15 - C17   
   133    143      1 ;    C15 - C24   
   133    164      1 ;    C15 - H15   
   134    137      1 ;    C16 - C18   
   134    141      1 ;    C16 - C22   
   134    157      1 ;    C16 - H8    
   134    165      1 ;    C16 - H16   
   135    138      1 ;     S5 - C19   
   135    140      1 ;     S5 - C21   
   135    143      1 ;     S5 - C24   
   135    158      1 ;     S5 - H9    
   135    159      1 ;     S5 - H10   
   135    163      1 ;     S5 - H14   
   135    164      1 ;     S5 - H15   
   136    139      1 ;    C17 - C20   
   136    142      1 ;    C17 - C23   
   136    160      1 ;    C17 - H11   
   136    162      1 ;    C17 - H13   
   137    140      1 ;    C18 - C21   
   137    161      1 ;    C18 - H12   
   137    163      1 ;    C18 - H14   
   138    141      1 ;    C19 - C22   
   138    162      1 ;    C19 - H13   
   139    159      1 ;    C20 - H10   
   139    163      1 ;    C20 - H14   
   140    160      1 ;    C21 - H11   
   141    159      1 ;    C22 - H10   
   141    161      1 ;    C22 - H12   
   142    158      1 ;    C23 - H9    
   143    157      1 ;    C24 - H8    
   144    156      1 ;    C25 - H7    
   145    155      1 ;    C26 - H6    
   146    154      1 ;    C27 - H5    
   147    153      1 ;    C28 - H4    
   148    152      1 ;    C29 - H3    
   149    150      1 ;    C30 - H1    
   149    151      1 ;    C30 - H2    
   151    152      1 ;     H2 - H3    
   153    154      1 ;     H4 - H5    
   155    156      1 ;     H6 - H7    
   157    158      1 ;     H8 - H9    
   159    160      1 ;    H10 - H11   
   160    161      1 ;    H11 - H12   
   161    162      1 ;    H12 - H13   
   162    163      1 ;    H13 - H14   
   164    165      1 ;    H15 - H16   
   166    167      1 ;    H17 - H18   
   168    169      1 ;    H19 - H20   
   170    171      1 ;    H21 - H22   
   172    175      1 ;     S1 - C3    
   172    205      1 ;     S1 - C29   
   172    208      1 ;     S1 - H2    
   172    228      1 ;     S1 - H22   
   173    176      1 ;     C1 - C4    
   173    209      1 ;     C1 - H3    
   173    227      1 ;     C1 - H21   
   174    177      1 ;     C2 - S2    
   174    205      1 ;     C2 - C29   
   174    207      1 ;     C2 - H1    
   174    228      1 ;     C2 - H22   
   175    178      1 ;     C3 - C5    
   175    206      1 ;     C3 - C30   
   175    227      1 ;     C3 - H21   
   176    179      1 ;     C4 - C6    
   176    204      1 ;     C4 - C28   
   176    208      1 ;     C4 - H2    
   176    228      1 ;     C4 - H22   
   177    180      1 ;     S2 - C7    
   177    203      1 ;     S2 - C27   
   177    206      1 ;     S2 - C30   
   177    209      1 ;     S2 - H3    
   177    210      1 ;     S2 - H4    
   177    226      1 ;     S2 - H20   
   177    227      1 ;     S2 - H21   
   178    181      1 ;     C5 - C8    
   178    205      1 ;     C5 - C29   
   178    211      1 ;     C5 - H5    
   178    225      1 ;     C5 - H19   
   179    182      1 ;     C6 - S3    
   179    203      1 ;     C6 - C27   
   179    226      1 ;     C6 - H20   
   180    183      1 ;     C7 - C9    
   180    204      1 ;     C7 - C28   
   180    225      1 ;     C7 - H19   
   181    184      1 ;     C8 - C10   
   181    202      1 ;     C8 - C26   
   181    210      1 ;     C8 - H4    
   181    226      1 ;     C8 - H20   
   182    185      1 ;     S3 - C11   
   182    201      1 ;     S3 - C25   
   182    204      1 ;     S3 - C28   
   182    211      1 ;     S3 - H5    
   182    212      1 ;     S3 - H6    
   182    224      1 ;     S3 - H18   
   182    225      1 ;     S3 - H19   
   183    186      1 ;     C9 - C12   
   183    203      1 ;     C9 - C27   
   183    213      1 ;     C9 - H7    
   183    223      1 ;     C9 - H17   
   184    187      1 ;    C10 - S4    
   184    201      1 ;    C10 - C25   
   184    224      1 ;    C10 - H18   
   185    188      1 ;    C11 - C13   
   185    202      1 ;    C11 - C26   
   185    223      1 ;    C11 - H17   
   186    189      1 ;    C12 - C14   
   186    200      1 ;    C12 - C24   
   186    212      1 ;    C12 - H6    
   186    224      1 ;    C12 - H18   
   187    190      1 ;     S4 - C15   
   187    199      1 ;     S4 - C23   
   187    202      1 ;     S4 - C26   
   187    213      1 ;     S4 - H7    
   187    214      1 ;     S4 - H8    
   187    222      1 ;     S4 - H16   
   187    223      1 ;     S4 - H17   
   188    191      1 ;    C13 - C16   
   188    201      1 ;    C13 - C25   
   188    215      1 ;    C13 - H9    
   188    221      1 ;    C13 - H15   
   189    192      1 ;    C14 - S5    
   189    199      1 ;    C14 - C23   
   189    222      1 ;    C14 - H16   
   190    193      1 ;    C15 - C17   
   190    200      1 ;    C15 - C24   
   190    221      1 ;    C15 - H15   
   191    194      1 ;    C16 - C18   
   191    198      1 ;    C16 - C22   
   191    214      1 ;    C16 - H8    
   191    222      1 ;    C16 - H16   
   192    195      1 ;     S5 - C19   
   192    197      1 ;     S5 - C21   
   192    200      1 ;     S5 - C24   
   192    215      1 ;     S5 - H9    
   192    216      1 ;     S5 - H10   
   192    220      1 ;     S5 - H14   
   192    221      1 ;     S5 - H15   
   193    196      1 ;    C17 - C20   
   193    199      1 ;    C17 - C23   
   193    217      1 ;    C17 - H11   
   193    219      1 ;    C17 - H13   
   194    197      1 ;    C18 - C21   
   194    218      1 ;    C18 - H12   
   194    220      1 ;    C18 - H14   
   195    198      1 ;    C19 - C22   
   195    219      1 ;    C19 - H13   
   196    216      1 ;    C20 - H10   
   196    220      1 ;    C20 - H14   
   197    217      1 ;    C21 - H11   
   198    216      1 ;    C22 - H10   
   198    218      1 ;    C22 - H12   
   199    215      1 ;    C23 - H9    
   200    214      1 ;    C24 - H8    
   201    213      1 ;    C25 - H7    
   202    212      1 ;    C26 - H6    
   203    211      1 ;    C27 - H5    
   204    210      1 ;    C28 - H4    
   205    209      1 ;    C29 - H3    
   206    207      1 ;    C30 - H1    
   206    208      1 ;    C30 - H2    
   208    209      1 ;     H2 - H3    
   210    211      1 ;     H4 - H5    
   212    213      1 ;     H6 - H7    
   214    215      1 ;     H8 - H9    
   216    217      1 ;    H10 - H11   
   217    218      1 ;    H11 - H12   
   218    219      1 ;    H12 - H13   
   219    220      1 ;    H13 - H14   
   221    222      1 ;    H15 - H16   
   223    224      1 ;    H17 - H18   
   225    226      1 ;    H19 - H20   
   227    228      1 ;    H21 - H22   
   229    232      1 ;     S1 - C3    
   229    262      1 ;     S1 - C29   
   229    265      1 ;     S1 - H2    
   229    285      1 ;     S1 - H22   
   230    233      1 ;     C1 - C4    
   230    266      1 ;     C1 - H3    
   230    284      1 ;     C1 - H21   
   231    234      1 ;     C2 - S2    
   231    262      1 ;     C2 - C29   
   231    264      1 ;     C2 - H1    
   231    285      1 ;     C2 - H22   
   232    235      1 ;     C3 - C5    
   232    263      1 ;     C3 - C30   
   232    284      1 ;     C3 - H21   
   233    236      1 ;     C4 - C6    
   233    261      1 ;     C4 - C28   
   233    265      1 ;     C4 - H2    
   233    285      1 ;     C4 - H22   
   234    237      1 ;     S2 - C7    
   234    260      1 ;     S2 - C27   
   234    263      1 ;     S2 - C30   
   234    266      1 ;     S2 - H3    
   234    267      1 ;     S2 - H4    
   234    283      1 ;     S2 - H20   
   234    284      1 ;     S2 - H21   
   235    238      1 ;     C5 - C8    
   235    262      1 ;     C5 - C29   
   235    268      1 ;     C5 - H5    
   235    282      1 ;     C5 - H19   
   236    239      1 ;     C6 - S3    
   236    260      1 ;     C6 - C27   
   236    283      1 ;     C6 - H20   
   237    240      1 ;     C7 - C9    
   237    261      1 ;     C7 - C28   
   237    282      1 ;     C7 - H19   
   238    241      1 ;     C8 - C10   
   238    259      1 ;     C8 - C26   
   238    267      1 ;     C8 - H4    
   238    283      1 ;     C8 - H20   
   239    242      1 ;     S3 - C11   
   239    258      1 ;     S3 - C25   
   239    261      1 ;     S3 - C28   
   239    268      1 ;     S3 - H5    
   239    269      1 ;     S3 - H6    
   239    281      1 ;     S3 - H18   
   239    282      1 ;     S3 - H19   
   240    243      1 ;     C9 - C12   
   240    260      1 ;     C9 - C27   
   240    270      1 ;     C9 - H7    
   240    280      1 ;     C9 - H17   
   241    244      1 ;    C10 - S4    
   241    258      1 ;    C10 - C25   
   241    281      1 ;    C10 - H18   
   242    245      1 ;    C11 - C13   
   242    259      1 ;    C11 - C26   
   242    280      1 ;    C11 - H17   
   243    246      1 ;    C12 - C14   
   243    257      1 ;    C12 - C24   
   243    269      1 ;    C12 - H6    
   243    281      1 ;    C12 - H18   
   244    247      1 ;     S4 - C15   
   244    256      1 ;     S4 - C23   
   244    259      1 ;     S4 - C26   
   244    270      1 ;     S4 - H7    
   244    271      1 ;     S4 - H8    
   244    279      1 ;     S4 - H16   
   244    280      1 ;     S4 - H17   
   245    248      1 ;    C13 - C16   
   245    258      1 ;    C13 - C25   
   245    272      1 ;    C13 - H9    
   245    278      1 ;    C13 - H15   
   246    249      1 ;    C14 - S5    
   246    256      1 ;    C14 - C23   
   246    279      1 ;    C14 - H16   
   247    250      1 ;    C15 - C17   
   247    257      1 ;    C15 - C24   
   247    278      1 ;    C15 - H15   
   248    251      1 ;    C16 - C18   
   248    255      1 ;    C16 - C22   
   248    271      1 ;    C16 - H8    
   248    279      1 ;    C16 - H16   
   249    252      1 ;     S5 - C19   
   249    254      1 ;     S5 - C21   
   249    257      1 ;     S5 - C24   
   249    272      1 ;     S5 - H9    
   249    273      1 ;     S5 - H10   
   249    277      1 ;     S5 - H14   
   249    278      1 ;     S5 - H15   
   250    253      1 ;    C17 - C20   
   250    256      1 ;    C17 - C23   
   250    274      1 ;    C17 - H11   
   250    276      1 ;    C17 - H13   
   251    254      1 ;    C18 - C21   
   251    275      1 ;    C18 - H12   
   251    277      1 ;    C18 - H14   
   252    255      1 ;    C19 - C22   
   252    276      1 ;    C19 - H13   
   253    273      1 ;    C20 - H10   
   253    277      1 ;    C20 - H14   
   254    274      1 ;    C21 - H11   
   255    273      1 ;    C22 - H10   
   255    275      1 ;    C22 - H12   
   256    272      1 ;    C23 - H9    
   257    271      1 ;    C24 - H8    
   258    270      1 ;    C25 - H7    
   259    269      1 ;    C26 - H6    
   260    268      1 ;    C27 - H5    
   261    267      1 ;    C28 - H4    
   262    266      1 ;    C29 - H3    
   263    264      1 ;    C30 - H1    
   263    265      1 ;    C30 - H2    
   265    266      1 ;     H2 - H3    
   267    268      1 ;     H4 - H5    
   269    270      1 ;     H6 - H7    
   271    272      1 ;     H8 - H9    
   273    274      1 ;    H10 - H11   
   274    275      1 ;    H11 - H12   
   275    276      1 ;    H12 - H13   
   276    277      1 ;    H13 - H14   
   278    279      1 ;    H15 - H16   
   280    281      1 ;    H17 - H18   
   282    283      1 ;    H19 - H20   
   284    285      1 ;    H21 - H22   
   286    289      1 ;     S1 - C3    
   286    319      1 ;     S1 - C29   
   286    322      1 ;     S1 - H2    
   286    342      1 ;     S1 - H22   
   287    290      1 ;     C1 - C4    
   287    323      1 ;     C1 - H3    
   287    341      1 ;     C1 - H21   
   288    291      1 ;     C2 - S2    
   288    319      1 ;     C2 - C29   
   288    321      1 ;     C2 - H1    
   288    342      1 ;     C2 - H22   
   289    292      1 ;     C3 - C5    
   289    320      1 ;     C3 - C30   
   289    341      1 ;     C3 - H21   
   290    293      1 ;     C4 - C6    
   290    318      1 ;     C4 - C28   
   290    322      1 ;     C4 - H2    
   290    342      1 ;     C4 - H22   
   291    294      1 ;     S2 - C7    
   291    317      1 ;     S2 - C27   
   291    320      1 ;     S2 - C30   
   291    323      1 ;     S2 - H3    
   291    324      1 ;     S2 - H4    
   291    340      1 ;     S2 - H20   
   291    341      1 ;     S2 - H21   
   292    295      1 ;     C5 - C8    
   292    319      1 ;     C5 - C29   
   292    325      1 ;     C5 - H5    
   292    339      1 ;     C5 - H19   
   293    296      1 ;     C6 - S3    
   293    317      1 ;     C6 - C27   
   293    340      1 ;     C6 - H20   
   294    297      1 ;     C7 - C9    
   294    318      1 ;     C7 - C28   
   294    339      1 ;     C7 - H19   
   295    298      1 ;     C8 - C10   
   295    316      1 ;     C8 - C26   
   295    324      1 ;     C8 - H4    
   295    340      1 ;     C8 - H20   
   296    299      1 ;     S3 - C11   
   296    315      1 ;     S3 - C25   
   296    318      1 ;     S3 - C28   
   296    325      1 ;     S3 - H5    
   296    326      1 ;     S3 - H6    
   296    338      1 ;     S3 - H18   
   296    339      1 ;     S3 - H19   
   297    300      1 ;     C9 - C12   
   297    317      1 ;     C9 - C27   
   297    327      1 ;     C9 - H7    
   297    337      1 ;     C9 - H17   
   298    301      1 ;    C10 - S4    
   298    315      1 ;    C10 - C25   
   298    338      1 ;    C10 - H18   
   299    302      1 ;    C11 - C13   
   299    316      1 ;    C11 - C26   
   299    337      1 ;    C11 - H17   
   300    303      1 ;    C12 - C14   
   300    314      1 ;    C12 - C24   
   300    326      1 ;    C12 - H6    
   300    338      1 ;    C12 - H18   
   301    304      1 ;     S4 - C15   
   301    313      1 ;     S4 - C23   
   301    316      1 ;     S4 - C26   
   301    327      1 ;     S4 - H7    
   301    328      1 ;     S4 - H8    
   301    336      1 ;     S4 - H16   
   301    337      1 ;     S4 - H17   
   302    305      1 ;    C13 - C16   
   302    315      1 ;    C13 - C25   
   302    329      1 ;    C13 - H9    
   302    335      1 ;    C13 - H15   
   303    306      1 ;    C14 - S5    
   303    313      1 ;    C14 - C23   
   303    336      1 ;    C14 - H16   
   304    307      1 ;    C15 - C17   
   304    314      1 ;    C15 - C24   
   304    335      1 ;    C15 - H15   
   305    308      1 ;    C16 - C18   
   305    312      1 ;    C16 - C22   
   305    328      1 ;    C16 - H8    
   305    336      1 ;    C16 - H16   
   306    309      1 ;     S5 - C19   
   306    311      1 ;     S5 - C21   
   306    314      1 ;     S5 - C24   
   306    329      1 ;     S5 - H9    
   306    330      1 ;     S5 - H10   
   306    334      1 ;     S5 - H14   
   306    335      1 ;     S5 - H15   
   307    310      1 ;    C17 - C20   
   307    313      1 ;    C17 - C23   
   307    331      1 ;    C17 - H11   
   307    333      1 ;    C17 - H13   
   308    311      1 ;    C18 - C21   
   308    332      1 ;    C18 - H12   
   308    334      1 ;    C18 - H14   
   309    312      1 ;    C19 - C22   
   309    333      1 ;    C19 - H13   
   310    330      1 ;    C20 - H10   
   310    334      1 ;    C20 - H14   
   311    331      1 ;    C21 - H11   
   312    330      1 ;    C22 - H10   
   312    332      1 ;    C22 - H12   
   313    329      1 ;    C23 - H9    
   314    328      1 ;    C24 - H8    
   315    327      1 ;    C25 - H7    
   316    326      1 ;    C26 - H6    
   317    325      1 ;    C27 - H5    
   318    324      1 ;    C28 - H4    
   319    323      1 ;    C29 - H3    
   320    321      1 ;    C30 - H1    
   320    322      1 ;    C30 - H2    
   322    323      1 ;     H2 - H3    
   324    325      1 ;     H4 - H5    
   326    327      1 ;     H6 - H7    
   328    329      1 ;     H8 - H9    
   330    331      1 ;    H10 - H11   
   331    332      1 ;    H11 - H12   
   332    333      1 ;    H12 - H13   
   333    334      1 ;    H13 - H14   
   335    336      1 ;    H15 - H16   
   337    338      1 ;    H17 - H18   
   339    340      1 ;    H19 - H20   
   341    342      1 ;    H21 - H22   
   343    346      1 ;     S1 - C3    
   343    376      1 ;     S1 - C29   
   343    379      1 ;     S1 - H2    
   343    399      1 ;     S1 - H22   
   344    347      1 ;     C1 - C4    
   344    380      1 ;     C1 - H3    
   344    398      1 ;     C1 - H21   
   345    348      1 ;     C2 - S2    
   345    376      1 ;     C2 - C29   
   345    378      1 ;     C2 - H1    
   345    399      1 ;     C2 - H22   
   346    349      1 ;     C3 - C5    
   346    377      1 ;     C3 - C30   
   346    398      1 ;     C3 - H21   
   347    350      1 ;     C4 - C6    
   347    375      1 ;     C4 - C28   
   347    379      1 ;     C4 - H2    
   347    399      1 ;     C4 - H22   
   348    351      1 ;     S2 - C7    
   348    374      1 ;     S2 - C27   
   348    377      1 ;     S2 - C30   
   348    380      1 ;     S2 - H3    
   348    381      1 ;     S2 - H4    
   348    397      1 ;     S2 - H20   
   348    398      1 ;     S2 - H21   
   349    352      1 ;     C5 - C8    
   349    376      1 ;     C5 - C29   
   349    382      1 ;     C5 - H5    
   349    396      1 ;     C5 - H19   
   350    353      1 ;     C6 - S3    
   350    374      1 ;     C6 - C27   
   350    397      1 ;     C6 - H20   
   351    354      1 ;     C7 - C9    
   351    375      1 ;     C7 - C28   
   351    396      1 ;     C7 - H19   
   352    355      1 ;     C8 - C10   
   352    373      1 ;     C8 - C26   
   352    381      1 ;     C8 - H4    
   352    397      1 ;     C8 - H20   
   353    356      1 ;     S3 - C11   
   353    372      1 ;     S3 - C25   
   353    375      1 ;     S3 - C28   
   353    382      1 ;     S3 - H5    
   353    383      1 ;     S3 - H6    
   353    395      1 ;     S3 - H18   
   353    396      1 ;     S3 - H19   
   354    357      1 ;     C9 - C12   
   354    374      1 ;     C9 - C27   
   354    384      1 ;     C9 - H7    
   354    394      1 ;     C9 - H17   
   355    358      1 ;    C10 - S4    
   355    372      1 ;    C10 - C25   
   355    395      1 ;    C10 - H18   
   356    359      1 ;    C11 - C13   
   356    373      1 ;    C11 - C26   
   356    394      1 ;    C11 - H17   
   357    360      1 ;    C12 - C14   
   357    371      1 ;    C12 - C24   
   357    383      1 ;    C12 - H6    
   357    395      1 ;    C12 - H18   
   358    361      1 ;     S4 - C15   
   358    370      1 ;     S4 - C23   
   358    373      1 ;     S4 - C26   
   358    384      1 ;     S4 - H7    
   358    385      1 ;     S4 - H8    
   358    393      1 ;     S4 - H16   
   358    394      1 ;     S4 - H17   
   359    362      1 ;    C13 - C16   
   359    372      1 ;    C13 - C25   
   359    386      1 ;    C13 - H9    
   359    392      1 ;    C13 - H15   
   360    363      1 ;    C14 - S5    
   360    370      1 ;    C14 - C23   
   360    393      1 ;    C14 - H16   
   361    364      1 ;    C15 - C17   
   361    371      1 ;    C15 - C24   
   361    392      1 ;    C15 - H15   
   362    365      1 ;    C16 - C18   
   362    369      1 ;    C16 - C22   
   362    385      1 ;    C16 - H8    
   362    393      1 ;    C16 - H16   
   363    366      1 ;     S5 - C19   
   363    368      1 ;     S5 - C21   
   363    371      1 ;     S5 - C24   
   363    386      1 ;     S5 - H9    
   363    387      1 ;     S5 - H10   
   363    391      1 ;     S5 - H14   
   363    392      1 ;     S5 - H15   
   364    367      1 ;    C17 - C20   
   364    370      1 ;    C17 - C23   
   364    388      1 ;    C17 - H11   
   364    390      1 ;    C17 - H13   
   365    368      1 ;    C18 - C21   
   365    389      1 ;    C18 - H12   
   365    391      1 ;    C18 - H14   
   366    369      1 ;    C19 - C22   
   366    390      1 ;    C19 - H13   
   367    387      1 ;    C20 - H10   
   367    391      1 ;    C20 - H14   
   368    388      1 ;    C21 - H11   
   369    387      1 ;    C22 - H10   
   369    389      1 ;    C22 - H12   
   370    386      1 ;    C23 - H9    
   371    385      1 ;    C24 - H8    
   372    384      1 ;    C25 - H7    
   373    383      1 ;    C26 - H6    
   374    382      1 ;    C27 - H5    
   375    381      1 ;    C28 - H4    
   376    380      1 ;    C29 - H3    
   377    378      1 ;    C30 - H1    
   377    379      1 ;    C30 - H2    
   379    380      1 ;     H2 - H3    
   381    382      1 ;     H4 - H5    
   383    384      1 ;     H6 - H7    
   385    386      1 ;     H8 - H9    
   387    388      1 ;    H10 - H11   
   388    389      1 ;    H11 - H12   
   389    390      1 ;    H12 - H13   
   390    391      1 ;    H13 - H14   
   392    393      1 ;    H15 - H16   
   394    395      1 ;    H17 - H18   
   396    397      1 ;    H19 - H20   
   398    399      1 ;    H21 - H22   
   400    403      1 ;     S1 - C3    
   400    433      1 ;     S1 - C29   
   400    436      1 ;     S1 - H2    
   400    456      1 ;     S1 - H22   
   401    404      1 ;     C1 - C4    
   401    437      1 ;     C1 - H3    
   401    455      1 ;     C1 - H21   
   402    405      1 ;     C2 - S2    
   402    433      1 ;     C2 - C29   
   402    435      1 ;     C2 - H1    
   402    456      1 ;     C2 - H22   
   403    406      1 ;     C3 - C5    
   403    434      1 ;     C3 - C30   
   403    455      1 ;     C3 - H21   
   404    407      1 ;     C4 - C6    
   404    432      1 ;     C4 - C28   
   404    436      1 ;     C4 - H2    
   404    456      1 ;     C4 - H22   
   405    408      1 ;     S2 - C7    
   405    431      1 ;     S2 - C27   
   405    434      1 ;     S2 - C30   
   405    437      1 ;     S2 - H3    
   405    438      1 ;     S2 - H4    
   405    454      1 ;     S2 - H20   
   405    455      1 ;     S2 - H21   
   406    409      1 ;     C5 - C8    
   406    433      1 ;     C5 - C29   
   406    439      1 ;     C5 - H5    
   406    453      1 ;     C5 - H19   
   407    410      1 ;     C6 - S3    
   407    431      1 ;     C6 - C27   
   407    454      1 ;     C6 - H20   
   408    411      1 ;     C7 - C9    
   408    432      1 ;     C7 - C28   
   408    453      1 ;     C7 - H19   
   409    412      1 ;     C8 - C10   
   409    430      1 ;     C8 - C26   
   409    438      1 ;     C8 - H4    
   409    454      1 ;     C8 - H20   
   410    413      1 ;     S3 - C11   
   410    429      1 ;     S3 - C25   
   410    432      1 ;     S3 - C28   
   410    439      1 ;     S3 - H5    
   410    440      1 ;     S3 - H6    
   410    452      1 ;     S3 - H18   
   410    453      1 ;     S3 - H19   
   411    414      1 ;     C9 - C12   
   411    431      1 ;     C9 - C27   
   411    441      1 ;     C9 - H7    
   411    451      1 ;     C9 - H17   
   412    415      1 ;    C10 - S4    
   412    429      1 ;    C10 - C25   
   412    452      1 ;    C10 - H18   
   413    416      1 ;    C11 - C13   
   413    430      1 ;    C11 - C26   
   413    451      1 ;    C11 - H17   
   414    417      1 ;    C12 - C14   
   414    428      1 ;    C12 - C24   
   414    440      1 ;    C12 - H6    
   414    452      1 ;    C12 - H18   
   415    418      1 ;     S4 - C15   
   415    427      1 ;     S4 - C23   
   415    430      1 ;     S4 - C26   
   415    441      1 ;     S4 - H7    
   415    442      1 ;     S4 - H8    
   415    450      1 ;     S4 - H16   
   415    451      1 ;     S4 - H17   
   416    419      1 ;    C13 - C16   
   416    429      1 ;    C13 - C25   
   416    443      1 ;    C13 - H9    
   416    449      1 ;    C13 - H15   
   417    420      1 ;    C14 - S5    
   417    427      1 ;    C14 - C23   
   417    450      1 ;    C14 - H16   
   418    421      1 ;    C15 - C17   
   418    428      1 ;    C15 - C24   
   418    449      1 ;    C15 - H15   
   419    422      1 ;    C16 - C18   
   419    426      1 ;    C16 - C22   
   419    442      1 ;    C16 - H8    
   419    450      1 ;    C16 - H16   
   420    423      1 ;     S5 - C19   
   420    425      1 ;     S5 - C21   
   420    428      1 ;     S5 - C24   
   420    443      1 ;     S5 - H9    
   420    444      1 ;     S5 - H10   
   420    448      1 ;     S5 - H14   
   420    449      1 ;     S5 - H15   
   421    424      1 ;    C17 - C20   
   421    427      1 ;    C17 - C23   
   421    445      1 ;    C17 - H11   
   421    447      1 ;    C17 - H13   
   422    425      1 ;    C18 - C21   
   422    446      1 ;    C18 - H12   
   422    448      1 ;    C18 - H14   
   423    426      1 ;    C19 - C22   
   423    447      1 ;    C19 - H13   
   424    444      1 ;    C20 - H10   
   424    448      1 ;    C20 - H14   
   425    445      1 ;    C21 - H11   
   426    444      1 ;    C22 - H10   
   426    446      1 ;    C22 - H12   
   427    443      1 ;    C23 - H9    
   428    442      1 ;    C24 - H8    
   429    441      1 ;    C25 - H7    
   430    440      1 ;    C26 - H6    
   431    439      1 ;    C27 - H5    
   432    438      1 ;    C28 - H4    
   433    437      1 ;    C29 - H3    
   434    435      1 ;    C30 - H1    
   434    436      1 ;    C30 - H2    
   436    437      1 ;     H2 - H3    
   438    439      1 ;     H4 - H5    
   440    441      1 ;     H6 - H7    
   442    443      1 ;     H8 - H9    
   444    445      1 ;    H10 - H11   
   445    446      1 ;    H11 - H12   
   446    447      1 ;    H12 - H13   
   447    448      1 ;    H13 - H14   
   449    450      1 ;    H15 - H16   
   451    452      1 ;    H17 - H18   
   453    454      1 ;    H19 - H20   
   455    456      1 ;    H21 - H22   
   457    460      1 ;     S1 - C3    
   457    490      1 ;     S1 - C29   
   457    493      1 ;     S1 - H2    
   457    513      1 ;     S1 - H22   
   458    461      1 ;     C1 - C4    
   458    494      1 ;     C1 - H3    
   458    512      1 ;     C1 - H21   
   459    462      1 ;     C2 - S2    
   459    490      1 ;     C2 - C29   
   459    492      1 ;     C2 - H1    
   459    513      1 ;     C2 - H22   
   460    463      1 ;     C3 - C5    
   460    491      1 ;     C3 - C30   
   460    512      1 ;     C3 - H21   
   461    464      1 ;     C4 - C6    
   461    489      1 ;     C4 - C28   
   461    493      1 ;     C4 - H2    
   461    513      1 ;     C4 - H22   
   462    465      1 ;     S2 - C7    
   462    488      1 ;     S2 - C27   
   462    491      1 ;     S2 - C30   
   462    494      1 ;     S2 - H3    
   462    495      1 ;     S2 - H4    
   462    511      1 ;     S2 - H20   
   462    512      1 ;     S2 - H21   
   463    466      1 ;     C5 - C8    
   463    490      1 ;     C5 - C29   
   463    496      1 ;     C5 - H5    
   463    510      1 ;     C5 - H19   
   464    467      1 ;     C6 - S3    
   464    488      1 ;     C6 - C27   
   464    511      1 ;     C6 - H20   
   465    468      1 ;     C7 - C9    
   465    489      1 ;     C7 - C28   
   465    510      1 ;     C7 - H19   
   466    469      1 ;     C8 - C10   
   466    487      1 ;     C8 - C26   
   466    495      1 ;     C8 - H4    
   466    511      1 ;     C8 - H20   
   467    470      1 ;     S3 - C11   
   467    486      1 ;     S3 - C25   
   467    489      1 ;     S3 - C28   
   467    496      1 ;     S3 - H5    
   467    497      1 ;     S3 - H6    
   467    509      1 ;     S3 - H18   
   467    510      1 ;     S3 - H19   
   468    471      1 ;     C9 - C12   
   468    488      1 ;     C9 - C27   
   468    498      1 ;     C9 - H7    
   468    508      1 ;     C9 - H17   
   469    472      1 ;    C10 - S4    
   469    486      1 ;    C10 - C25   
   469    509      1 ;    C10 - H18   
   470    473      1 ;    C11 - C13   
   470    487      1 ;    C11 - C26   
   470    508      1 ;    C11 - H17   
   471    474      1 ;    C12 - C14   
   471    485      1 ;    C12 - C24   
   471    497      1 ;    C12 - H6    
   471    509      1 ;    C12 - H18   
   472    475      1 ;     S4 - C15   
   472    484      1 ;     S4 - C23   
   472    487      1 ;     S4 - C26   
   472    498      1 ;     S4 - H7    
   472    499      1 ;     S4 - H8    
   472    507      1 ;     S4 - H16   
   472    508      1 ;     S4 - H17   
   473    476      1 ;    C13 - C16   
   473    486      1 ;    C13 - C25   
   473    500      1 ;    C13 - H9    
   473    506      1 ;    C13 - H15   
   474    477      1 ;    C14 - S5    
   474    484      1 ;    C14 - C23   
   474    507      1 ;    C14 - H16   
   475    478      1 ;    C15 - C17   
   475    485      1 ;    C15 - C24   
   475    506      1 ;    C15 - H15   
   476    479      1 ;    C16 - C18   
   476    483      1 ;    C16 - C22   
   476    499      1 ;    C16 - H8    
   476    507      1 ;    C16 - H16   
   477    480      1 ;     S5 - C19   
   477    482      1 ;     S5 - C21   
   477    485      1 ;     S5 - C24   
   477    500      1 ;     S5 - H9    
   477    501      1 ;     S5 - H10   
   477    505      1 ;     S5 - H14   
   477    506      1 ;     S5 - H15   
   478    481      1 ;    C17 - C20   
   478    484      1 ;    C17 - C23   
   478    502      1 ;    C17 - H11   
   478    504      1 ;    C17 - H13   
   479    482      1 ;    C18 - C21   
   479    503      1 ;    C18 - H12   
   479    505      1 ;    C18 - H14   
   480    483      1 ;    C19 - C22   
   480    504      1 ;    C19 - H13   
   481    501      1 ;    C20 - H10   
   481    505      1 ;    C20 - H14   
   482    502      1 ;    C21 - H11   
   483    501      1 ;    C22 - H10   
   483    503      1 ;    C22 - H12   
   484    500      1 ;    C23 - H9    
   485    499      1 ;    C24 - H8    
   486    498      1 ;    C25 - H7    
   487    497      1 ;    C26 - H6    
   488    496      1 ;    C27 - H5    
   489    495      1 ;    C28 - H4    
   490    494      1 ;    C29 - H3    
   491    492      1 ;    C30 - H1    
   491    493      1 ;    C30 - H2    
   493    494      1 ;     H2 - H3    
   495    496      1 ;     H4 - H5    
   497    498      1 ;     H6 - H7    
   499    500      1 ;     H8 - H9    
   501    502      1 ;    H10 - H11   
   502    503      1 ;    H11 - H12   
   503    504      1 ;    H12 - H13   
   504    505      1 ;    H13 - H14   
   506    507      1 ;    H15 - H16   
   508    509      1 ;    H17 - H18   
   510    511      1 ;    H19 - H20   
   512    513      1 ;    H21 - H22   
   514    517      1 ;     S1 - C3    
   514    547      1 ;     S1 - C29   
   514    550      1 ;     S1 - H2    
   514    570      1 ;     S1 - H22   
   515    518      1 ;     C1 - C4    
   515    551      1 ;     C1 - H3    
   515    569      1 ;     C1 - H21   
   516    519      1 ;     C2 - S2    
   516    547      1 ;     C2 - C29   
   516    549      1 ;     C2 - H1    
   516    570      1 ;     C2 - H22   
   517    520      1 ;     C3 - C5    
   517    548      1 ;     C3 - C30   
   517    569      1 ;     C3 - H21   
   518    521      1 ;     C4 - C6    
   518    546      1 ;     C4 - C28   
   518    550      1 ;     C4 - H2    
   518    570      1 ;     C4 - H22   
   519    522      1 ;     S2 - C7    
   519    545      1 ;     S2 - C27   
   519    548      1 ;     S2 - C30   
   519    551      1 ;     S2 - H3    
   519    552      1 ;     S2 - H4    
   519    568      1 ;     S2 - H20   
   519    569      1 ;     S2 - H21   
   520    523      1 ;     C5 - C8    
   520    547      1 ;     C5 - C29   
   520    553      1 ;     C5 - H5    
   520    567      1 ;     C5 - H19   
   521    524      1 ;     C6 - S3    
   521    545      1 ;     C6 - C27   
   521    568      1 ;     C6 - H20   
   522    525      1 ;     C7 - C9    
   522    546      1 ;     C7 - C28   
   522    567      1 ;     C7 - H19   
   523    526      1 ;     C8 - C10   
   523    544      1 ;     C8 - C26   
   523    552      1 ;     C8 - H4    
   523    568      1 ;     C8 - H20   
   524    527      1 ;     S3 - C11   
   524    543      1 ;     S3 - C25   
   524    546      1 ;     S3 - C28   
   524    553      1 ;     S3 - H5    
   524    554      1 ;     S3 - H6    
   524    566      1 ;     S3 - H18   
   524    567      1 ;     S3 - H19   
   525    528      1 ;     C9 - C12   
   525    545      1 ;     C9 - C27   
   525    555      1 ;     C9 - H7    
   525    565      1 ;     C9 - H17   
   526    529      1 ;    C10 - S4    
   526    543      1 ;    C10 - C25   
   526    566      1 ;    C10 - H18   
   527    530      1 ;    C11 - C13   
   527    544      1 ;    C11 - C26   
   527    565      1 ;    C11 - H17   
   528    531      1 ;    C12 - C14   
   528    542      1 ;    C12 - C24   
   528    554      1 ;    C12 - H6    
   528    566      1 ;    C12 - H18   
   529    532      1 ;     S4 - C15   
   529    541      1 ;     S4 - C23   
   529    544      1 ;     S4 - C26   
   529    555      1 ;     S4 - H7    
   529    556      1 ;     S4 - H8    
   529    564      1 ;     S4 - H16   
   529    565      1 ;     S4 - H17   
   530    533      1 ;    C13 - C16   
   530    543      1 ;    C13 - C25   
   530    557      1 ;    C13 - H9    
   530    563      1 ;    C13 - H15   
   531    534      1 ;    C14 - S5    
   531    541      1 ;    C14 - C23   
   531    564      1 ;    C14 - H16   
   532    535      1 ;    C15 - C17   
   532    542      1 ;    C15 - C24   
   532    563      1 ;    C15 - H15   
   533    536      1 ;    C16 - C18   
   533    540      1 ;    C16 - C22   
   533    556      1 ;    C16 - H8    
   533    564      1 ;    C16 - H16   
   534    537      1 ;     S5 - C19   
   534    539      1 ;     S5 - C21   
   534    542      1 ;     S5 - C24   
   534    557      1 ;     S5 - H9    
   534    558      1 ;     S5 - H10   
   534    562      1 ;     S5 - H14   
   534    563      1 ;     S5 - H15   
   535    538      1 ;    C17 - C20   
   535    541      1 ;    C17 - C23   
   535    559      1 ;    C17 - H11   
   535    561      1 ;    C17 - H13   
   536    539      1 ;    C18 - C21   
   536    560      1 ;    C18 - H12   
   536    562      1 ;    C18 - H14   
   537    540      1 ;    C19 - C22   
   537    561      1 ;    C19 - H13   
   538    558      1 ;    C20 - H10   
   538    562      1 ;    C20 - H14   
   539    559      1 ;    C21 - H11   
   540    558      1 ;    C22 - H10   
   540    560      1 ;    C22 - H12   
   541    557      1 ;    C23 - H9    
   542    556      1 ;    C24 - H8    
   543    555      1 ;    C25 - H7    
   544    554      1 ;    C26 - H6    
   545    553      1 ;    C27 - H5    
   546    552      1 ;    C28 - H4    
   547    551      1 ;    C29 - H3    
   548    549      1 ;    C30 - H1    
   548    550      1 ;    C30 - H2    
   550    551      1 ;     H2 - H3    
   552    553      1 ;     H4 - H5    
   554    555      1 ;     H6 - H7    
   556    557      1 ;     H8 - H9    
   558    559      1 ;    H10 - H11   
   559    560      1 ;    H11 - H12   
   560    561      1 ;    H12 - H13   
   561    562      1 ;    H13 - H14   
   563    564      1 ;    H15 - H16   
   565    566      1 ;    H17 - H18   
   567    568      1 ;    H19 - H20   
   569    570      1 ;    H21 - H22   
   571    574      1 ;     S1 - C3    
   571    604      1 ;     S1 - C29   
   571    607      1 ;     S1 - H2    
   571    627      1 ;     S1 - H22   
   572    575      1 ;     C1 - C4    
   572    608      1 ;     C1 - H3    
   572    626      1 ;     C1 - H21   
   573    576      1 ;     C2 - S2    
   573    604      1 ;     C2 - C29   
   573    606      1 ;     C2 - H1    
   573    627      1 ;     C2 - H22   
   574    577      1 ;     C3 - C5    
   574    605      1 ;     C3 - C30   
   574    626      1 ;     C3 - H21   
   575    578      1 ;     C4 - C6    
   575    603      1 ;     C4 - C28   
   575    607      1 ;     C4 - H2    
   575    627      1 ;     C4 - H22   
   576    579      1 ;     S2 - C7    
   576    602      1 ;     S2 - C27   
   576    605      1 ;     S2 - C30   
   576    608      1 ;     S2 - H3    
   576    609      1 ;     S2 - H4    
   576    625      1 ;     S2 - H20   
   576    626      1 ;     S2 - H21   
   577    580      1 ;     C5 - C8    
   577    604      1 ;     C5 - C29   
   577    610      1 ;     C5 - H5    
   577    624      1 ;     C5 - H19   
   578    581      1 ;     C6 - S3    
   578    602      1 ;     C6 - C27   
   578    625      1 ;     C6 - H20   
   579    582      1 ;     C7 - C9    
   579    603      1 ;     C7 - C28   
   579    624      1 ;     C7 - H19   
   580    583      1 ;     C8 - C10   
   580    601      1 ;     C8 - C26   
   580    609      1 ;     C8 - H4    
   580    625      1 ;     C8 - H20   
   581    584      1 ;     S3 - C11   
   581    600      1 ;     S3 - C25   
   581    603      1 ;     S3 - C28   
   581    610      1 ;     S3 - H5    
   581    611      1 ;     S3 - H6    
   581    623      1 ;     S3 - H18   
   581    624      1 ;     S3 - H19   
   582    585      1 ;     C9 - C12   
   582    602      1 ;     C9 - C27   
   582    612      1 ;     C9 - H7    
   582    622      1 ;     C9 - H17   
   583    586      1 ;    C10 - S4    
   583    600      1 ;    C10 - C25   
   583    623      1 ;    C10 - H18   
   584    587      1 ;    C11 - C13   
   584    601      1 ;    C11 - C26   
   584    622      1 ;    C11 - H17   
   585    588      1 ;    C12 - C14   
   585    599      1 ;    C12 - C24   
   585    611      1 ;    C12 - H6    
   585    623      1 ;    C12 - H18   
   586    589      1 ;     S4 - C15   
   586    598      1 ;     S4 - C23   
   586    601      1 ;     S4 - C26   
   586    612      1 ;     S4 - H7    
   586    613      1 ;     S4 - H8    
   586    621      1 ;     S4 - H16   
   586    622      1 ;     S4 - H17   
   587    590      1 ;    C13 - C16   
   587    600      1 ;    C13 - C25   
   587    614      1 ;    C13 - H9    
   587    620      1 ;    C13 - H15   
   588    591      1 ;    C14 - S5    
   588    598      1 ;    C14 - C23   
   588    621      1 ;    C14 - H16   
   589    592      1 ;    C15 - C17   
   589    599      1 ;    C15 - C24   
   589    620      1 ;    C15 - H15   
   590    593      1 ;    C16 - C18   
   590    597      1 ;    C16 - C22   
   590    613      1 ;    C16 - H8    
   590    621      1 ;    C16 - H16   
   591    594      1 ;     S5 - C19   
   591    596      1 ;     S5 - C21   
   591    599      1 ;     S5 - C24   
   591    614      1 ;     S5 - H9    
   591    615      1 ;     S5 - H10   
   591    619      1 ;     S5 - H14   
   591    620      1 ;     S5 - H15   
   592    595      1 ;    C17 - C20   
   592    598      1 ;    C17 - C23   
   592    616      1 ;    C17 - H11   
   592    618      1 ;    C17 - H13   
   593    596      1 ;    C18 - C21   
   593    617      1 ;    C18 - H12   
   593    619      1 ;    C18 - H14   
   594    597      1 ;    C19 - C22   
   594    618      1 ;    C19 - H13   
   595    615      1 ;    C20 - H10   
   595    619      1 ;    C20 - H14   
   596    616      1 ;    C21 - H11   
   597    615      1 ;    C22 - H10   
   597    617      1 ;    C22 - H12   
   598    614      1 ;    C23 - H9    
   599    613      1 ;    C24 - H8    
   600    612      1 ;    C25 - H7    
   601    611      1 ;    C26 - H6    
   602    610      1 ;    C27 - H5    
   603    609      1 ;    C28 - H4    
   604    608      1 ;    C29 - H3    
   605    606      1 ;    C30 - H1    
   605    607      1 ;    C30 - H2    
   607    608      1 ;     H2 - H3    
   609    610      1 ;     H4 - H5    
   611    612      1 ;     H6 - H7    
   613    614      1 ;     H8 - H9    
   615    616      1 ;    H10 - H11   
   616    617      1 ;    H11 - H12   
   617    618      1 ;    H12 - H13   
   618    619      1 ;    H13 - H14   
   620    621      1 ;    H15 - H16   
   622    623      1 ;    H17 - H18   
   624    625      1 ;    H19 - H20   
   626    627      1 ;    H21 - H22   
   628    631      1 ;     S1 - C3    
   628    661      1 ;     S1 - C29   
   628    664      1 ;     S1 - H2    
   628    684      1 ;     S1 - H22   
   629    632      1 ;     C1 - C4    
   629    665      1 ;     C1 - H3    
   629    683      1 ;     C1 - H21   
   630    633      1 ;     C2 - S2    
   630    661      1 ;     C2 - C29   
   630    663      1 ;     C2 - H1    
   630    684      1 ;     C2 - H22   
   631    634      1 ;     C3 - C5    
   631    662      1 ;     C3 - C30   
   631    683      1 ;     C3 - H21   
   632    635      1 ;     C4 - C6    
   632    660      1 ;     C4 - C28   
   632    664      1 ;     C4 - H2    
   632    684      1 ;     C4 - H22   
   633    636      1 ;     S2 - C7    
   633    659      1 ;     S2 - C27   
   633    662      1 ;     S2 - C30   
   633    665      1 ;     S2 - H3    
   633    666      1 ;     S2 - H4    
   633    682      1 ;     S2 - H20   
   633    683      1 ;     S2 - H21   
   634    637      1 ;     C5 - C8    
   634    661      1 ;     C5 - C29   
   634    667      1 ;     C5 - H5    
   634    681      1 ;     C5 - H19   
   635    638      1 ;     C6 - S3    
   635    659      1 ;     C6 - C27   
   635    682      1 ;     C6 - H20   
   636    639      1 ;     C7 - C9    
   636    660      1 ;     C7 - C28   
   636    681      1 ;     C7 - H19   
   637    640      1 ;     C8 - C10   
   637    658      1 ;     C8 - C26   
   637    666      1 ;     C8 - H4    
   637    682      1 ;     C8 - H20   
   638    641      1 ;     S3 - C11   
   638    657      1 ;     S3 - C25   
   638    660      1 ;     S3 - C28   
   638    667      1 ;     S3 - H5    
   638    668      1 ;     S3 - H6    
   638    680      1 ;     S3 - H18   
   638    681      1 ;     S3 - H19   
   639    642      1 ;     C9 - C12   
   639    659      1 ;     C9 - C27   
   639    669      1 ;     C9 - H7    
   639    679      1 ;     C9 - H17   
   640    643      1 ;    C10 - S4    
   640    657      1 ;    C10 - C25   
   640    680      1 ;    C10 - H18   
   641    644      1 ;    C11 - C13   
   641    658      1 ;    C11 - C26   
   641    679      1 ;    C11 - H17   
   642    645      1 ;    C12 - C14   
   642    656      1 ;    C12 - C24   
   642    668      1 ;    C12 - H6    
   642    680      1 ;    C12 - H18   
   643    646      1 ;     S4 - C15   
   643    655      1 ;     S4 - C23   
   643    658      1 ;     S4 - C26   
   643    669      1 ;     S4 - H7    
   643    670      1 ;     S4 - H8    
   643    678      1 ;     S4 - H16   
   643    679      1 ;     S4 - H17   
   644    647      1 ;    C13 - C16   
   644    657      1 ;    C13 - C25   
   644    671      1 ;    C13 - H9    
   644    677      1 ;    C13 - H15   
   645    648      1 ;    C14 - S5    
   645    655      1 ;    C14 - C23   
   645    678      1 ;    C14 - H16   
   646    649      1 ;    C15 - C17   
   646    656      1 ;    C15 - C24   
   646    677      1 ;    C15 - H15   
   647    650      1 ;    C16 - C18   
   647    654      1 ;    C16 - C22   
   647    670      1 ;    C16 - H8    
   647    678      1 ;    C16 - H16   
   648    651      1 ;     S5 - C19   
   648    653      1 ;     S5 - C21   
   648    656      1 ;     S5 - C24   
   648    671      1 ;     S5 - H9    
   648    672      1 ;     S5 - H10   
   648    676      1 ;     S5 - H14   
   648    677      1 ;     S5 - H15   
   649    652      1 ;    C17 - C20   
   649    655      1 ;    C17 - C23   
   649    673      1 ;    C17 - H11   
   649    675      1 ;    C17 - H13   
   650    653      1 ;    C18 - C21   
   650    674      1 ;    C18 - H12   
   650    676      1 ;    C18 - H14   
   651    654      1 ;    C19 - C22   
   651    675      1 ;    C19 - H13   
   652    672      1 ;    C20 - H10   
   652    676      1 ;    C20 - H14   
   653    673      1 ;    C21 - H11   
   654    672      1 ;    C22 - H10   
   654    674      1 ;    C22 - H12   
   655    671      1 ;    C23 - H9    
   656    670      1 ;    C24 - H8    
   657    669      1 ;    C25 - H7    
   658    668      1 ;    C26 - H6    
   659    667      1 ;    C27 - H5    
   660    666      1 ;    C28 - H4    
   661    665      1 ;    C29 - H3    
   662    663      1 ;    C30 - H1    
   662    664      1 ;    C30 - H2    
   664    665      1 ;     H2 - H3    
   666    667      1 ;     H4 - H5    
   668    669      1 ;     H6 - H7    
   670    671      1 ;     H8 - H9    
   672    673      1 ;    H10 - H11   
   673    674      1 ;    H11 - H12   
   674    675      1 ;    H12 - H13   
   675    676      1 ;    H13 - H14   
   677    678      1 ;    H15 - H16   
   679    680      1 ;    H17 - H18   
   681    682      1 ;    H19 - H20   
   683    684      1 ;    H21 - H22   
   685    688      1 ;     S1 - C3    
   685    718      1 ;     S1 - C29   
   685    721      1 ;     S1 - H2    
   685    741      1 ;     S1 - H22   
   686    689      1 ;     C1 - C4    
   686    722      1 ;     C1 - H3    
   686    740      1 ;     C1 - H21   
   687    690      1 ;     C2 - S2    
   687    718      1 ;     C2 - C29   
   687    720      1 ;     C2 - H1    
   687    741      1 ;     C2 - H22   
   688    691      1 ;     C3 - C5    
   688    719      1 ;     C3 - C30   
   688    740      1 ;     C3 - H21   
   689    692      1 ;     C4 - C6    
   689    717      1 ;     C4 - C28   
   689    721      1 ;     C4 - H2    
   689    741      1 ;     C4 - H22   
   690    693      1 ;     S2 - C7    
   690    716      1 ;     S2 - C27   
   690    719      1 ;     S2 - C30   
   690    722      1 ;     S2 - H3    
   690    723      1 ;     S2 - H4    
   690    739      1 ;     S2 - H20   
   690    740      1 ;     S2 - H21   
   691    694      1 ;     C5 - C8    
   691    718      1 ;     C5 - C29   
   691    724      1 ;     C5 - H5    
   691    738      1 ;     C5 - H19   
   692    695      1 ;     C6 - S3    
   692    716      1 ;     C6 - C27   
   692    739      1 ;     C6 - H20   
   693    696      1 ;     C7 - C9    
   693    717      1 ;     C7 - C28   
   693    738      1 ;     C7 - H19   
   694    697      1 ;     C8 - C10   
   694    715      1 ;     C8 - C26   
   694    723      1 ;     C8 - H4    
   694    739      1 ;     C8 - H20   
   695    698      1 ;     S3 - C11   
   695    714      1 ;     S3 - C25   
   695    717      1 ;     S3 - C28   
   695    724      1 ;     S3 - H5    
   695    725      1 ;     S3 - H6    
   695    737      1 ;     S3 - H18   
   695    738      1 ;     S3 - H19   
   696    699      1 ;     C9 - C12   
   696    716      1 ;     C9 - C27   
   696    726      1 ;     C9 - H7    
   696    736      1 ;     C9 - H17   
   697    700      1 ;    C10 - S4    
   697    714      1 ;    C10 - C25   
   697    737      1 ;    C10 - H18   
   698    701      1 ;    C11 - C13   
   698    715      1 ;    C11 - C26   
   698    736      1 ;    C11 - H17   
   699    702      1 ;    C12 - C14   
   699    713      1 ;    C12 - C24   
   699    725      1 ;    C12 - H6    
   699    737      1 ;    C12 - H18   
   700    703      1 ;     S4 - C15   
   700    712      1 ;     S4 - C23   
   700    715      1 ;     S4 - C26   
   700    726      1 ;     S4 - H7    
   700    727      1 ;     S4 - H8    
   700    735      1 ;     S4 - H16   
   700    736      1 ;     S4 - H17   
   701    704      1 ;    C13 - C16   
   701    714      1 ;    C13 - C25   
   701    728      1 ;    C13 - H9    
   701    734      1 ;    C13 - H15   
   702    705      1 ;    C14 - S5    
   702    712      1 ;    C14 - C23   
   702    735      1 ;    C14 - H16   
   703    706      1 ;    C15 - C17   
   703    713      1 ;    C15 - C24   
   703    734      1 ;    C15 - H15   
   704    707      1 ;    C16 - C18   
   704    711      1 ;    C16 - C22   
   704    727      1 ;    C16 - H8    
   704    735      1 ;    C16 - H16   
   705    708      1 ;     S5 - C19   
   705    710      1 ;     S5 - C21   
   705    713      1 ;     S5 - C24   
   705    728      1 ;     S5 - H9    
   705    729      1 ;     S5 - H10   
   705    733      1 ;     S5 - H14   
   705    734      1 ;     S5 - H15   
   706    709      1 ;    C17 - C20   
   706    712      1 ;    C17 - C23   
   706    730      1 ;    C17 - H11   
   706    732      1 ;    C17 - H13   
   707    710      1 ;    C18 - C21   
   707    731      1 ;    C18 - H12   
   707    733      1 ;    C18 - H14   
   708    711      1 ;    C19 - C22   
   708    732      1 ;    C19 - H13   
   709    729      1 ;    C20 - H10   
   709    733      1 ;    C20 - H14   
   710    730      1 ;    C21 - H11   
   711    729      1 ;    C22 - H10   
   711    731      1 ;    C22 - H12   
   712    728      1 ;    C23 - H9    
   713    727      1 ;    C24 - H8    
   714    726      1 ;    C25 - H7    
   715    725      1 ;    C26 - H6    
   716    724      1 ;    C27 - H5    
   717    723      1 ;    C28 - H4    
   718    722      1 ;    C29 - H3    
   719    720      1 ;    C30 - H1    
   719    721      1 ;    C30 - H2    
   721    722      1 ;     H2 - H3    
   723    724      1 ;     H4 - H5    
   725    726      1 ;     H6 - H7    
   727    728      1 ;     H8 - H9    
   729    730      1 ;    H10 - H11   
   730    731      1 ;    H11 - H12   
   731    732      1 ;    H12 - H13   
   732    733      1 ;    H13 - H14   
   734    735      1 ;    H15 - H16   
   736    737      1 ;    H17 - H18   
   738    739      1 ;    H19 - H20   
   740    741      1 ;    H21 - H22   
   742    745      1 ;     S1 - C3    
   742    775      1 ;     S1 - C29   
   742    778      1 ;     S1 - H2    
   742    798      1 ;     S1 - H22   
   743    746      1 ;     C1 - C4    
   743    779      1 ;     C1 - H3    
   743    797      1 ;     C1 - H21   
   744    747      1 ;     C2 - S2    
   744    775      1 ;     C2 - C29   
   744    777      1 ;     C2 - H1    
   744    798      1 ;     C2 - H22   
   745    748      1 ;     C3 - C5    
   745    776      1 ;     C3 - C30   
   745    797      1 ;     C3 - H21   
   746    749      1 ;     C4 - C6    
   746    774      1 ;     C4 - C28   
   746    778      1 ;     C4 - H2    
   746    798      1 ;     C4 - H22   
   747    750      1 ;     S2 - C7    
   747    773      1 ;     S2 - C27   
   747    776      1 ;     S2 - C30   
   747    779      1 ;     S2 - H3    
   747    780      1 ;     S2 - H4    
   747    796      1 ;     S2 - H20   
   747    797      1 ;     S2 - H21   
   748    751      1 ;     C5 - C8    
   748    775      1 ;     C5 - C29   
   748    781      1 ;     C5 - H5    
   748    795      1 ;     C5 - H19   
   749    752      1 ;     C6 - S3    
   749    773      1 ;     C6 - C27   
   749    796      1 ;     C6 - H20   
   750    753      1 ;     C7 - C9    
   750    774      1 ;     C7 - C28   
   750    795      1 ;     C7 - H19   
   751    754      1 ;     C8 - C10   
   751    772      1 ;     C8 - C26   
   751    780      1 ;     C8 - H4    
   751    796      1 ;     C8 - H20   
   752    755      1 ;     S3 - C11   
   752    771      1 ;     S3 - C25   
   752    774      1 ;     S3 - C28   
   752    781      1 ;     S3 - H5    
   752    782      1 ;     S3 - H6    
   752    794      1 ;     S3 - H18   
   752    795      1 ;     S3 - H19   
   753    756      1 ;     C9 - C12   
   753    773      1 ;     C9 - C27   
   753    783      1 ;     C9 - H7    
   753    793      1 ;     C9 - H17   
   754    757      1 ;    C10 - S4    
   754    771      1 ;    C10 - C25   
   754    794      1 ;    C10 - H18   
   755    758      1 ;    C11 - C13   
   755    772      1 ;    C11 - C26   
   755    793      1 ;    C11 - H17   
   756    759      1 ;    C12 - C14   
   756    770      1 ;    C12 - C24   
   756    782      1 ;    C12 - H6    
   756    794      1 ;    C12 - H18   
   757    760      1 ;     S4 - C15   
   757    769      1 ;     S4 - C23   
   757    772      1 ;     S4 - C26   
   757    783      1 ;     S4 - H7    
   757    784      1 ;     S4 - H8    
   757    792      1 ;     S4 - H16   
   757    793      1 ;     S4 - H17   
   758    761      1 ;    C13 - C16   
   758    771      1 ;    C13 - C25   
   758    785      1 ;    C13 - H9    
   758    791      1 ;    C13 - H15   
   759    762      1 ;    C14 - S5    
   759    769      1 ;    C14 - C23   
   759    792      1 ;    C14 - H16   
   760    763      1 ;    C15 - C17   
   760    770      1 ;    C15 - C24   
   760    791      1 ;    C15 - H15   
   761    764      1 ;    C16 - C18   
   761    768      1 ;    C16 - C22   
   761    784      1 ;    C16 - H8    
   761    792      1 ;    C16 - H16   
   762    765      1 ;     S5 - C19   
   762    767      1 ;     S5 - C21   
   762    770      1 ;     S5 - C24   
   762    785      1 ;     S5 - H9    
   762    786      1 ;     S5 - H10   
   762    790      1 ;     S5 - H14   
   762    791      1 ;     S5 - H15   
   763    766      1 ;    C17 - C20   
   763    769      1 ;    C17 - C23   
   763    787      1 ;    C17 - H11   
   763    789      1 ;    C17 - H13   
   764    767      1 ;    C18 - C21   
   764    788      1 ;    C18 - H12   
   764    790      1 ;    C18 - H14   
   765    768      1 ;    C19 - C22   
   765    789      1 ;    C19 - H13   
   766    786      1 ;    C20 - H10   
   766    790      1 ;    C20 - H14   
   767    787      1 ;    C21 - H11   
   768    786      1 ;    C22 - H10   
   768    788      1 ;    C22 - H12   
   769    785      1 ;    C23 - H9    
   770    784      1 ;    C24 - H8    
   771    783      1 ;    C25 - H7    
   772    782      1 ;    C26 - H6    
   773    781      1 ;    C27 - H5    
   774    780      1 ;    C28 - H4    
   775    779      1 ;    C29 - H3    
   776    777      1 ;    C30 - H1    
   776    778      1 ;    C30 - H2    
   778    779      1 ;     H2 - H3    
   780    781      1 ;     H4 - H5    
   782    783      1 ;     H6 - H7    
   784    785      1 ;     H8 - H9    
   786    787      1 ;    H10 - H11   
   787    788      1 ;    H11 - H12   
   788    789      1 ;    H12 - H13   
   789    790      1 ;    H13 - H14   
   791    792      1 ;    H15 - H16   
   793    794      1 ;    H17 - H18   
   795    796      1 ;    H19 - H20   
   797    798      1 ;    H21 - H22   
   799    802      1 ;     S1 - C3    
   799    832      1 ;     S1 - C29   
   799    835      1 ;     S1 - H2    
   799    855      1 ;     S1 - H22   
   800    803      1 ;     C1 - C4    
   800    836      1 ;     C1 - H3    
   800    854      1 ;     C1 - H21   
   801    804      1 ;     C2 - S2    
   801    832      1 ;     C2 - C29   
   801    834      1 ;     C2 - H1    
   801    855      1 ;     C2 - H22   
   802    805      1 ;     C3 - C5    
   802    833      1 ;     C3 - C30   
   802    854      1 ;     C3 - H21   
   803    806      1 ;     C4 - C6    
   803    831      1 ;     C4 - C28   
   803    835      1 ;     C4 - H2    
   803    855      1 ;     C4 - H22   
   804    807      1 ;     S2 - C7    
   804    830      1 ;     S2 - C27   
   804    833      1 ;     S2 - C30   
   804    836      1 ;     S2 - H3    
   804    837      1 ;     S2 - H4    
   804    853      1 ;     S2 - H20   
   804    854      1 ;     S2 - H21   
   805    808      1 ;     C5 - C8    
   805    832      1 ;     C5 - C29   
   805    838      1 ;     C5 - H5    
   805    852      1 ;     C5 - H19   
   806    809      1 ;     C6 - S3    
   806    830      1 ;     C6 - C27   
   806    853      1 ;     C6 - H20   
   807    810      1 ;     C7 - C9    
   807    831      1 ;     C7 - C28   
   807    852      1 ;     C7 - H19   
   808    811      1 ;     C8 - C10   
   808    829      1 ;     C8 - C26   
   808    837      1 ;     C8 - H4    
   808    853      1 ;     C8 - H20   
   809    812      1 ;     S3 - C11   
   809    828      1 ;     S3 - C25   
   809    831      1 ;     S3 - C28   
   809    838      1 ;     S3 - H5    
   809    839      1 ;     S3 - H6    
   809    851      1 ;     S3 - H18   
   809    852      1 ;     S3 - H19   
   810    813      1 ;     C9 - C12   
   810    830      1 ;     C9 - C27   
   810    840      1 ;     C9 - H7    
   810    850      1 ;     C9 - H17   
   811    814      1 ;    C10 - S4    
   811    828      1 ;    C10 - C25   
   811    851      1 ;    C10 - H18   
   812    815      1 ;    C11 - C13   
   812    829      1 ;    C11 - C26   
   812    850      1 ;    C11 - H17   
   813    816      1 ;    C12 - C14   
   813    827      1 ;    C12 - C24   
   813    839      1 ;    C12 - H6    
   813    851      1 ;    C12 - H18   
   814    817      1 ;     S4 - C15   
   814    826      1 ;     S4 - C23   
   814    829      1 ;     S4 - C26   
   814    840      1 ;     S4 - H7    
   814    841      1 ;     S4 - H8    
   814    849      1 ;     S4 - H16   
   814    850      1 ;     S4 - H17   
   815    818      1 ;    C13 - C16   
   815    828      1 ;    C13 - C25   
   815    842      1 ;    C13 - H9    
   815    848      1 ;    C13 - H15   
   816    819      1 ;    C14 - S5    
   816    826      1 ;    C14 - C23   
   816    849      1 ;    C14 - H16   
   817    820      1 ;    C15 - C17   
   817    827      1 ;    C15 - C24   
   817    848      1 ;    C15 - H15   
   818    821      1 ;    C16 - C18   
   818    825      1 ;    C16 - C22   
   818    841      1 ;    C16 - H8    
   818    849      1 ;    C16 - H16   
   819    822      1 ;     S5 - C19   
   819    824      1 ;     S5 - C21   
   819    827      1 ;     S5 - C24   
   819    842      1 ;     S5 - H9    
   819    843      1 ;     S5 - H10   
   819    847      1 ;     S5 - H14   
   819    848      1 ;     S5 - H15   
   820    823      1 ;    C17 - C20   
   820    826      1 ;    C17 - C23   
   820    844      1 ;    C17 - H11   
   820    846      1 ;    C17 - H13   
   821    824      1 ;    C18 - C21   
   821    845      1 ;    C18 - H12   
   821    847      1 ;    C18 - H14   
   822    825      1 ;    C19 - C22   
   822    846      1 ;    C19 - H13   
   823    843      1 ;    C20 - H10   
   823    847      1 ;    C20 - H14   
   824    844      1 ;    C21 - H11   
   825    843      1 ;    C22 - H10   
   825    845      1 ;    C22 - H12   
   826    842      1 ;    C23 - H9    
   827    841      1 ;    C24 - H8    
   828    840      1 ;    C25 - H7    
   829    839      1 ;    C26 - H6    
   830    838      1 ;    C27 - H5    
   831    837      1 ;    C28 - H4    
   832    836      1 ;    C29 - H3    
   833    834      1 ;    C30 - H1    
   833    835      1 ;    C30 - H2    
   835    836      1 ;     H2 - H3    
   837    838      1 ;     H4 - H5    
   839    840      1 ;     H6 - H7    
   841    842      1 ;     H8 - H9    
   843    844      1 ;    H10 - H11   
   844    845      1 ;    H11 - H12   
   845    846      1 ;    H12 - H13   
   846    847      1 ;    H13 - H14   
   848    849      1 ;    H15 - H16   
   850    851      1 ;    H17 - H18   
   852    853      1 ;    H19 - H20   
   854    855      1 ;    H21 - H22   
   856    859      1 ;     S1 - C3    
   856    889      1 ;     S1 - C29   
   856    892      1 ;     S1 - H2    
   856    912      1 ;     S1 - H22   
   857    860      1 ;     C1 - C4    
   857    893      1 ;     C1 - H3    
   857    911      1 ;     C1 - H21   
   858    861      1 ;     C2 - S2    
   858    889      1 ;     C2 - C29   
   858    891      1 ;     C2 - H1    
   858    912      1 ;     C2 - H22   
   859    862      1 ;     C3 - C5    
   859    890      1 ;     C3 - C30   
   859    911      1 ;     C3 - H21   
   860    863      1 ;     C4 - C6    
   860    888      1 ;     C4 - C28   
   860    892      1 ;     C4 - H2    
   860    912      1 ;     C4 - H22   
   861    864      1 ;     S2 - C7    
   861    887      1 ;     S2 - C27   
   861    890      1 ;     S2 - C30   
   861    893      1 ;     S2 - H3    
   861    894      1 ;     S2 - H4    
   861    910      1 ;     S2 - H20   
   861    911      1 ;     S2 - H21   
   862    865      1 ;     C5 - C8    
   862    889      1 ;     C5 - C29   
   862    895      1 ;     C5 - H5    
   862    909      1 ;     C5 - H19   
   863    866      1 ;     C6 - S3    
   863    887      1 ;     C6 - C27   
   863    910      1 ;     C6 - H20   
   864    867      1 ;     C7 - C9    
   864    888      1 ;     C7 - C28   
   864    909      1 ;     C7 - H19   
   865    868      1 ;     C8 - C10   
   865    886      1 ;     C8 - C26   
   865    894      1 ;     C8 - H4    
   865    910      1 ;     C8 - H20   
   866    869      1 ;     S3 - C11   
   866    885      1 ;     S3 - C25   
   866    888      1 ;     S3 - C28   
   866    895      1 ;     S3 - H5    
   866    896      1 ;     S3 - H6    
   866    908      1 ;     S3 - H18   
   866    909      1 ;     S3 - H19   
   867    870      1 ;     C9 - C12   
   867    887      1 ;     C9 - C27   
   867    897      1 ;     C9 - H7    
   867    907      1 ;     C9 - H17   
   868    871      1 ;    C10 - S4    
   868    885      1 ;    C10 - C25   
   868    908      1 ;    C10 - H18   
   869    872      1 ;    C11 - C13   
   869    886      1 ;    C11 - C26   
   869    907      1 ;    C11 - H17   
   870    873      1 ;    C12 - C14   
   870    884      1 ;    C12 - C24   
   870    896      1 ;    C12 - H6    
   870    908      1 ;    C12 - H18   
   871    874      1 ;     S4 - C15   
   871    883      1 ;     S4 - C23   
   871    886      1 ;     S4 - C26   
   871    897      1 ;     S4 - H7    
   871    898      1 ;     S4 - H8    
   871    906      1 ;     S4 - H16   
   871    907      1 ;     S4 - H17   
   872    875      1 ;    C13 - C16   
   872    885      1 ;    C13 - C25   
   872    899      1 ;    C13 - H9    
   872    905      1 ;    C13 - H15   
   873    876      1 ;    C14 - S5    
   873    883      1 ;    C14 - C23   
   873    906      1 ;    C14 - H16   
   874    877      1 ;    C15 - C17   
   874    884      1 ;    C15 - C24   
   874    905      1 ;    C15 - H15   
   875    878      1 ;    C16 - C18   
   875    882      1 ;    C16 - C22   
   875    898      1 ;    C16 - H8    
   875    906      1 ;    C16 - H16   
   876    879      1 ;     S5 - C19   
   876    881      1 ;     S5 - C21   
   876    884      1 ;     S5 - C24   
   876    899      1 ;     S5 - H9    
   876    900      1 ;     S5 - H10   
   876    904      1 ;     S5 - H14   
   876    905      1 ;     S5 - H15   
   877    880      1 ;    C17 - C20   
   877    883      1 ;    C17 - C23   
   877    901      1 ;    C17 - H11   
   877    903      1 ;    C17 - H13   
   878    881      1 ;    C18 - C21   
   878    902      1 ;    C18 - H12   
   878    904      1 ;    C18 - H14   
   879    882      1 ;    C19 - C22   
   879    903      1 ;    C19 - H13   
   880    900      1 ;    C20 - H10   
   880    904      1 ;    C20 - H14   
   881    901      1 ;    C21 - H11   
   882    900      1 ;    C22 - H10   
   882    902      1 ;    C22 - H12   
   883    899      1 ;    C23 - H9    
   884    898      1 ;    C24 - H8    
   885    897      1 ;    C25 - H7    
   886    896      1 ;    C26 - H6    
   887    895      1 ;    C27 - H5    
   888    894      1 ;    C28 - H4    
   889    893      1 ;    C29 - H3    
   890    891      1 ;    C30 - H1    
   890    892      1 ;    C30 - H2    
   892    893      1 ;     H2 - H3    
   894    895      1 ;     H4 - H5    
   896    897      1 ;     H6 - H7    
   898    899      1 ;     H8 - H9    
   900    901      1 ;    H10 - H11   
   901    902      1 ;    H11 - H12   
   902    903      1 ;    H12 - H13   
   903    904      1 ;    H13 - H14   
   905    906      1 ;    H15 - H16   
   907    908      1 ;    H17 - H18   
   909    910      1 ;    H19 - H20   
   911    912      1 ;    H21 - H22   
   913    916      1 ;     S1 - C3    
   913    946      1 ;     S1 - C29   
   913    949      1 ;     S1 - H2    
   913    969      1 ;     S1 - H22   
   914    917      1 ;     C1 - C4    
   914    950      1 ;     C1 - H3    
   914    968      1 ;     C1 - H21   
   915    918      1 ;     C2 - S2    
   915    946      1 ;     C2 - C29   
   915    948      1 ;     C2 - H1    
   915    969      1 ;     C2 - H22   
   916    919      1 ;     C3 - C5    
   916    947      1 ;     C3 - C30   
   916    968      1 ;     C3 - H21   
   917    920      1 ;     C4 - C6    
   917    945      1 ;     C4 - C28   
   917    949      1 ;     C4 - H2    
   917    969      1 ;     C4 - H22   
   918    921      1 ;     S2 - C7    
   918    944      1 ;     S2 - C27   
   918    947      1 ;     S2 - C30   
   918    950      1 ;     S2 - H3    
   918    951      1 ;     S2 - H4    
   918    967      1 ;     S2 - H20   
   918    968      1 ;     S2 - H21   
   919    922      1 ;     C5 - C8    
   919    946      1 ;     C5 - C29   
   919    952      1 ;     C5 - H5    
   919    966      1 ;     C5 - H19   
   920    923      1 ;     C6 - S3    
   920    944      1 ;     C6 - C27   
   920    967      1 ;     C6 - H20   
   921    924      1 ;     C7 - C9    
   921    945      1 ;     C7 - C28   
   921    966      1 ;     C7 - H19   
   922    925      1 ;     C8 - C10   
   922    943      1 ;     C8 - C26   
   922    951      1 ;     C8 - H4    
   922    967      1 ;     C8 - H20   
   923    926      1 ;     S3 - C11   
   923    942      1 ;     S3 - C25   
   923    945      1 ;     S3 - C28   
   923    952      1 ;     S3 - H5    
   923    953      1 ;     S3 - H6    
   923    965      1 ;     S3 - H18   
   923    966      1 ;     S3 - H19   
   924    927      1 ;     C9 - C12   
   924    944      1 ;     C9 - C27   
   924    954      1 ;     C9 - H7    
   924    964      1 ;     C9 - H17   
   925    928      1 ;    C10 - S4    
   925    942      1 ;    C10 - C25   
   925    965      1 ;    C10 - H18   
   926    929      1 ;    C11 - C13   
   926    943      1 ;    C11 - C26   
   926    964      1 ;    C11 - H17   
   927    930      1 ;    C12 - C14   
   927    941      1 ;    C12 - C24   
   927    953      1 ;    C12 - H6    
   927    965      1 ;    C12 - H18   
   928    931      1 ;     S4 - C15   
   928    940      1 ;     S4 - C23   
   928    943      1 ;     S4 - C26   
   928    954      1 ;     S4 - H7    
   928    955      1 ;     S4 - H8    
   928    963      1 ;     S4 - H16   
   928    964      1 ;     S4 - H17   
   929    932      1 ;    C13 - C16   
   929    942      1 ;    C13 - C25   
   929    956      1 ;    C13 - H9    
   929    962      1 ;    C13 - H15   
   930    933      1 ;    C14 - S5    
   930    940      1 ;    C14 - C23   
   930    963      1 ;    C14 - H16   
   931    934      1 ;    C15 - C17   
   931    941      1 ;    C15 - C24   
   931    962      1 ;    C15 - H15   
   932    935      1 ;    C16 - C18   
   932    939      1 ;    C16 - C22   
   932    955      1 ;    C16 - H8    
   932    963      1 ;    C16 - H16   
   933    936      1 ;     S5 - C19   
   933    938      1 ;     S5 - C21   
   933    941      1 ;     S5 - C24   
   933    956      1 ;     S5 - H9    
   933    957      1 ;     S5 - H10   
   933    961      1 ;     S5 - H14   
   933    962      1 ;     S5 - H15   
   934    937      1 ;    C17 - C20   
   934    940      1 ;    C17 - C23   
   934    958      1 ;    C17 - H11   
   934    960      1 ;    C17 - H13   
   935    938      1 ;    C18 - C21   
   935    959      1 ;    C18 - H12   
   935    961      1 ;    C18 - H14   
   936    939      1 ;    C19 - C22   
   936    960      1 ;    C19 - H13   
   937    957      1 ;    C20 - H10   
   937    961      1 ;    C20 - H14   
   938    958      1 ;    C21 - H11   
   939    957      1 ;    C22 - H10   
   939    959      1 ;    C22 - H12   
   940    956      1 ;    C23 - H9    
   941    955      1 ;    C24 - H8    
   942    954      1 ;    C25 - H7    
   943    953      1 ;    C26 - H6    
   944    952      1 ;    C27 - H5    
   945    951      1 ;    C28 - H4    
   946    950      1 ;    C29 - H3    
   947    948      1 ;    C30 - H1    
   947    949      1 ;    C30 - H2    
   949    950      1 ;     H2 - H3    
   951    952      1 ;     H4 - H5    
   953    954      1 ;     H6 - H7    
   955    956      1 ;     H8 - H9    
   957    958      1 ;    H10 - H11   
   958    959      1 ;    H11 - H12   
   959    960      1 ;    H12 - H13   
   960    961      1 ;    H13 - H14   
   962    963      1 ;    H15 - H16   
   964    965      1 ;    H17 - H18   
   966    967      1 ;    H19 - H20   
   968    969      1 ;    H21 - H22   
   970    973      1 ;     S1 - C3    
   970   1003      1 ;     S1 - C29   
   970   1006      1 ;     S1 - H2    
   970   1026      1 ;     S1 - H22   
   971    974      1 ;     C1 - C4    
   971   1007      1 ;     C1 - H3    
   971   1025      1 ;     C1 - H21   
   972    975      1 ;     C2 - S2    
   972   1003      1 ;     C2 - C29   
   972   1005      1 ;     C2 - H1    
   972   1026      1 ;     C2 - H22   
   973    976      1 ;     C3 - C5    
   973   1004      1 ;     C3 - C30   
   973   1025      1 ;     C3 - H21   
   974    977      1 ;     C4 - C6    
   974   1002      1 ;     C4 - C28   
   974   1006      1 ;     C4 - H2    
   974   1026      1 ;     C4 - H22   
   975    978      1 ;     S2 - C7    
   975   1001      1 ;     S2 - C27   
   975   1004      1 ;     S2 - C30   
   975   1007      1 ;     S2 - H3    
   975   1008      1 ;     S2 - H4    
   975   1024      1 ;     S2 - H20   
   975   1025      1 ;     S2 - H21   
   976    979      1 ;     C5 - C8    
   976   1003      1 ;     C5 - C29   
   976   1009      1 ;     C5 - H5    
   976   1023      1 ;     C5 - H19   
   977    980      1 ;     C6 - S3    
   977   1001      1 ;     C6 - C27   
   977   1024      1 ;     C6 - H20   
   978    981      1 ;     C7 - C9    
   978   1002      1 ;     C7 - C28   
   978   1023      1 ;     C7 - H19   
   979    982      1 ;     C8 - C10   
   979   1000      1 ;     C8 - C26   
   979   1008      1 ;     C8 - H4    
   979   1024      1 ;     C8 - H20   
   980    983      1 ;     S3 - C11   
   980    999      1 ;     S3 - C25   
   980   1002      1 ;     S3 - C28   
   980   1009      1 ;     S3 - H5    
   980   1010      1 ;     S3 - H6    
   980   1022      1 ;     S3 - H18   
   980   1023      1 ;     S3 - H19   
   981    984      1 ;     C9 - C12   
   981   1001      1 ;     C9 - C27   
   981   1011      1 ;     C9 - H7    
   981   1021      1 ;     C9 - H17   
   982    985      1 ;    C10 - S4    
   982    999      1 ;    C10 - C25   
   982   1022      1 ;    C10 - H18   
   983    986      1 ;    C11 - C13   
   983   1000      1 ;    C11 - C26   
   983   1021      1 ;    C11 - H17   
   984    987      1 ;    C12 - C14   
   984    998      1 ;    C12 - C24   
   984   1010      1 ;    C12 - H6    
   984   1022      1 ;    C12 - H18   
   985    988      1 ;     S4 - C15   
   985    997      1 ;     S4 - C23   
   985   1000      1 ;     S4 - C26   
   985   1011      1 ;     S4 - H7    
   985   1012      1 ;     S4 - H8    
   985   1020      1 ;     S4 - H16   
   985   1021      1 ;     S4 - H17   
   986    989      1 ;    C13 - C16   
   986    999      1 ;    C13 - C25   
   986   1013      1 ;    C13 - H9    
   986   1019      1 ;    C13 - H15   
   987    990      1 ;    C14 - S5    
   987    997      1 ;    C14 - C23   
   987   1020      1 ;    C14 - H16   
   988    991      1 ;    C15 - C17   
   988    998      1 ;    C15 - C24   
   988   1019      1 ;    C15 - H15   
   989    992      1 ;    C16 - C18   
   989    996      1 ;    C16 - C22   
   989   1012      1 ;    C16 - H8    
   989   1020      1 ;    C16 - H16   
   990    993      1 ;     S5 - C19   
   990    995      1 ;     S5 - C21   
   990    998      1 ;     S5 - C24   
   990   1013      1 ;     S5 - H9    
   990   1014      1 ;     S5 - H10   
   990   1018      1 ;     S5 - H14   
   990   1019      1 ;     S5 - H15   
   991    994      1 ;    C17 - C20   
   991    997      1 ;    C17 - C23   
   991   1015      1 ;    C17 - H11   
   991   1017      1 ;    C17 - H13   
   992    995      1 ;    C18 - C21   
   992   1016      1 ;    C18 - H12   
   992   1018      1 ;    C18 - H14   
   993    996      1 ;    C19 - C22   
   993   1017      1 ;    C19 - H13   
   994   1014      1 ;    C20 - H10   
   994   1018      1 ;    C20 - H14   
   995   1015      1 ;    C21 - H11   
   996   1014      1 ;    C22 - H10   
   996   1016      1 ;    C22 - H12   
   997   1013      1 ;    C23 - H9    
   998   1012      1 ;    C24 - H8    
   999   1011      1 ;    C25 - H7    
  1000   1010      1 ;    C26 - H6    
  1001   1009      1 ;    C27 - H5    
  1002   1008      1 ;    C28 - H4    
  1003   1007      1 ;    C29 - H3    
  1004   1005      1 ;    C30 - H1    
  1004   1006      1 ;    C30 - H2    
  1006   1007      1 ;     H2 - H3    
  1008   1009      1 ;     H4 - H5    
  1010   1011      1 ;     H6 - H7    
  1012   1013      1 ;     H8 - H9    
  1014   1015      1 ;    H10 - H11   
  1015   1016      1 ;    H11 - H12   
  1016   1017      1 ;    H12 - H13   
  1017   1018      1 ;    H13 - H14   
  1019   1020      1 ;    H15 - H16   
  1021   1022      1 ;    H17 - H18   
  1023   1024      1 ;    H19 - H20   
  1025   1026      1 ;    H21 - H22   
  1027   1030      1 ;     S1 - C3    
  1027   1060      1 ;     S1 - C29   
  1027   1063      1 ;     S1 - H2    
  1027   1083      1 ;     S1 - H22   
  1028   1031      1 ;     C1 - C4    
  1028   1064      1 ;     C1 - H3    
  1028   1082      1 ;     C1 - H21   
  1029   1032      1 ;     C2 - S2    
  1029   1060      1 ;     C2 - C29   
  1029   1062      1 ;     C2 - H1    
  1029   1083      1 ;     C2 - H22   
  1030   1033      1 ;     C3 - C5    
  1030   1061      1 ;     C3 - C30   
  1030   1082      1 ;     C3 - H21   
  1031   1034      1 ;     C4 - C6    
  1031   1059      1 ;     C4 - C28   
  1031   1063      1 ;     C4 - H2    
  1031   1083      1 ;     C4 - H22   
  1032   1035      1 ;     S2 - C7    
  1032   1058      1 ;     S2 - C27   
  1032   1061      1 ;     S2 - C30   
  1032   1064      1 ;     S2 - H3    
  1032   1065      1 ;     S2 - H4    
  1032   1081      1 ;     S2 - H20   
  1032   1082      1 ;     S2 - H21   
  1033   1036      1 ;     C5 - C8    
  1033   1060      1 ;     C5 - C29   
  1033   1066      1 ;     C5 - H5    
  1033   1080      1 ;     C5 - H19   
  1034   1037      1 ;     C6 - S3    
  1034   1058      1 ;     C6 - C27   
  1034   1081      1 ;     C6 - H20   
  1035   1038      1 ;     C7 - C9    
  1035   1059      1 ;     C7 - C28   
  1035   1080      1 ;     C7 - H19   
  1036   1039      1 ;     C8 - C10   
  1036   1057      1 ;     C8 - C26   
  1036   1065      1 ;     C8 - H4    
  1036   1081      1 ;     C8 - H20   
  1037   1040      1 ;     S3 - C11   
  1037   1056      1 ;     S3 - C25   
  1037   1059      1 ;     S3 - C28   
  1037   1066      1 ;     S3 - H5    
  1037   1067      1 ;     S3 - H6    
  1037   1079      1 ;     S3 - H18   
  1037   1080      1 ;     S3 - H19   
  1038   1041      1 ;     C9 - C12   
  1038   1058      1 ;     C9 - C27   
  1038   1068      1 ;     C9 - H7    
  1038   1078      1 ;     C9 - H17   
  1039   1042      1 ;    C10 - S4    
  1039   1056      1 ;    C10 - C25   
  1039   1079      1 ;    C10 - H18   
  1040   1043      1 ;    C11 - C13   
  1040   1057      1 ;    C11 - C26   
  1040   1078      1 ;    C11 - H17   
  1041   1044      1 ;    C12 - C14   
  1041   1055      1 ;    C12 - C24   
  1041   1067      1 ;    C12 - H6    
  1041   1079      1 ;    C12 - H18   
  1042   1045      1 ;     S4 - C15   
  1042   1054      1 ;     S4 - C23   
  1042   1057      1 ;     S4 - C26   
  1042   1068      1 ;     S4 - H7    
  1042   1069      1 ;     S4 - H8    
  1042   1077      1 ;     S4 - H16   
  1042   1078      1 ;     S4 - H17   
  1043   1046      1 ;    C13 - C16   
  1043   1056      1 ;    C13 - C25   
  1043   1070      1 ;    C13 - H9    
  1043   1076      1 ;    C13 - H15   
  1044   1047      1 ;    C14 - S5    
  1044   1054      1 ;    C14 - C23   
  1044   1077      1 ;    C14 - H16   
  1045   1048      1 ;    C15 - C17   
  1045   1055      1 ;    C15 - C24   
  1045   1076      1 ;    C15 - H15   
  1046   1049      1 ;    C16 - C18   
  1046   1053      1 ;    C16 - C22   
  1046   1069      1 ;    C16 - H8    
  1046   1077      1 ;    C16 - H16   
  1047   1050      1 ;     S5 - C19   
  1047   1052      1 ;     S5 - C21   
  1047   1055      1 ;     S5 - C24   
  1047   1070      1 ;     S5 - H9    
  1047   1071      1 ;     S5 - H10   
  1047   1075      1 ;     S5 - H14   
  1047   1076      1 ;     S5 - H15   
  1048   1051      1 ;    C17 - C20   
  1048   1054      1 ;    C17 - C23   
  1048   1072      1 ;    C17 - H11   
  1048   1074      1 ;    C17 - H13   
  1049   1052      1 ;    C18 - C21   
  1049   1073      1 ;    C18 - H12   
  1049   1075      1 ;    C18 - H14   
  1050   1053      1 ;    C19 - C22   
  1050   1074      1 ;    C19 - H13   
  1051   1071      1 ;    C20 - H10   
  1051   1075      1 ;    C20 - H14   
  1052   1072      1 ;    C21 - H11   
  1053   1071      1 ;    C22 - H10   
  1053   1073      1 ;    C22 - H12   
  1054   1070      1 ;    C23 - H9    
  1055   1069      1 ;    C24 - H8    
  1056   1068      1 ;    C25 - H7    
  1057   1067      1 ;    C26 - H6    
  1058   1066      1 ;    C27 - H5    
  1059   1065      1 ;    C28 - H4    
  1060   1064      1 ;    C29 - H3    
  1061   1062      1 ;    C30 - H1    
  1061   1063      1 ;    C30 - H2    
  1063   1064      1 ;     H2 - H3    
  1065   1066      1 ;     H4 - H5    
  1067   1068      1 ;     H6 - H7    
  1069   1070      1 ;     H8 - H9    
  1071   1072      1 ;    H10 - H11   
  1072   1073      1 ;    H11 - H12   
  1073   1074      1 ;    H12 - H13   
  1074   1075      1 ;    H13 - H14   
  1076   1077      1 ;    H15 - H16   
  1078   1079      1 ;    H17 - H18   
  1080   1081      1 ;    H19 - H20   
  1082   1083      1 ;    H21 - H22   
  1084   1087      1 ;     S1 - C3    
  1084   1117      1 ;     S1 - C29   
  1084   1120      1 ;     S1 - H2    
  1084   1140      1 ;     S1 - H22   
  1085   1088      1 ;     C1 - C4    
  1085   1121      1 ;     C1 - H3    
  1085   1139      1 ;     C1 - H21   
  1086   1089      1 ;     C2 - S2    
  1086   1117      1 ;     C2 - C29   
  1086   1119      1 ;     C2 - H1    
  1086   1140      1 ;     C2 - H22   
  1087   1090      1 ;     C3 - C5    
  1087   1118      1 ;     C3 - C30   
  1087   1139      1 ;     C3 - H21   
  1088   1091      1 ;     C4 - C6    
  1088   1116      1 ;     C4 - C28   
  1088   1120      1 ;     C4 - H2    
  1088   1140      1 ;     C4 - H22   
  1089   1092      1 ;     S2 - C7    
  1089   1115      1 ;     S2 - C27   
  1089   1118      1 ;     S2 - C30   
  1089   1121      1 ;     S2 - H3    
  1089   1122      1 ;     S2 - H4    
  1089   1138      1 ;     S2 - H20   
  1089   1139      1 ;     S2 - H21   
  1090   1093      1 ;     C5 - C8    
  1090   1117      1 ;     C5 - C29   
  1090   1123      1 ;     C5 - H5    
  1090   1137      1 ;     C5 - H19   
  1091   1094      1 ;     C6 - S3    
  1091   1115      1 ;     C6 - C27   
  1091   1138      1 ;     C6 - H20   
  1092   1095      1 ;     C7 - C9    
  1092   1116      1 ;     C7 - C28   
  1092   1137      1 ;     C7 - H19   
  1093   1096      1 ;     C8 - C10   
  1093   1114      1 ;     C8 - C26   
  1093   1122      1 ;     C8 - H4    
  1093   1138      1 ;     C8 - H20   
  1094   1097      1 ;     S3 - C11   
  1094   1113      1 ;     S3 - C25   
  1094   1116      1 ;     S3 - C28   
  1094   1123      1 ;     S3 - H5    
  1094   1124      1 ;     S3 - H6    
  1094   1136      1 ;     S3 - H18   
  1094   1137      1 ;     S3 - H19   
  1095   1098      1 ;     C9 - C12   
  1095   1115      1 ;     C9 - C27   
  1095   1125      1 ;     C9 - H7    
  1095   1135      1 ;     C9 - H17   
  1096   1099      1 ;    C10 - S4    
  1096   1113      1 ;    C10 - C25   
  1096   1136      1 ;    C10 - H18   
  1097   1100      1 ;    C11 - C13   
  1097   1114      1 ;    C11 - C26   
  1097   1135      1 ;    C11 - H17   
  1098   1101      1 ;    C12 - C14   
  1098   1112      1 ;    C12 - C24   
  1098   1124      1 ;    C12 - H6    
  1098   1136      1 ;    C12 - H18   
  1099   1102      1 ;     S4 - C15   
  1099   1111      1 ;     S4 - C23   
  1099   1114      1 ;     S4 - C26   
  1099   1125      1 ;     S4 - H7    
  1099   1126      1 ;     S4 - H8    
  1099   1134      1 ;     S4 - H16   
  1099   1135      1 ;     S4 - H17   
  1100   1103      1 ;    C13 - C16   
  1100   1113      1 ;    C13 - C25   
  1100   1127      1 ;    C13 - H9    
  1100   1133      1 ;    C13 - H15   
  1101   1104      1 ;    C14 - S5    
  1101   1111      1 ;    C14 - C23   
  1101   1134      1 ;    C14 - H16   
  1102   1105      1 ;    C15 - C17   
  1102   1112      1 ;    C15 - C24   
  1102   1133      1 ;    C15 - H15   
  1103   1106      1 ;    C16 - C18   
  1103   1110      1 ;    C16 - C22   
  1103   1126      1 ;    C16 - H8    
  1103   1134      1 ;    C16 - H16   
  1104   1107      1 ;     S5 - C19   
  1104   1109      1 ;     S5 - C21   
  1104   1112      1 ;     S5 - C24   
  1104   1127      1 ;     S5 - H9    
  1104   1128      1 ;     S5 - H10   
  1104   1132      1 ;     S5 - H14   
  1104   1133      1 ;     S5 - H15   
  1105   1108      1 ;    C17 - C20   
  1105   1111      1 ;    C17 - C23   
  1105   1129      1 ;    C17 - H11   
  1105   1131      1 ;    C17 - H13   
  1106   1109      1 ;    C18 - C21   
  1106   1130      1 ;    C18 - H12   
  1106   1132      1 ;    C18 - H14   
  1107   1110      1 ;    C19 - C22   
  1107   1131      1 ;    C19 - H13   
  1108   1128      1 ;    C20 - H10   
  1108   1132      1 ;    C20 - H14   
  1109   1129      1 ;    C21 - H11   
  1110   1128      1 ;    C22 - H10   
  1110   1130      1 ;    C22 - H12   
  1111   1127      1 ;    C23 - H9    
  1112   1126      1 ;    C24 - H8    
  1113   1125      1 ;    C25 - H7    
  1114   1124      1 ;    C26 - H6    
  1115   1123      1 ;    C27 - H5    
  1116   1122      1 ;    C28 - H4    
  1117   1121      1 ;    C29 - H3    
  1118   1119      1 ;    C30 - H1    
  1118   1120      1 ;    C30 - H2    
  1120   1121      1 ;     H2 - H3    
  1122   1123      1 ;     H4 - H5    
  1124   1125      1 ;     H6 - H7    
  1126   1127      1 ;     H8 - H9    
  1128   1129      1 ;    H10 - H11   
  1129   1130      1 ;    H11 - H12   
  1130   1131      1 ;    H12 - H13   
  1131   1132      1 ;    H13 - H14   
  1133   1134      1 ;    H15 - H16   
  1135   1136      1 ;    H17 - H18   
  1137   1138      1 ;    H19 - H20   
  1139   1140      1 ;    H21 - H22   

[ angles ]
;   ai     aj     ak    funct   theta         cth
     1      2      3      1    1.2178e+02    5.2492e+02 ;     S1 - C1     - C2    
     1      2     35      1    1.2178e+02    5.2492e+02 ;     S1 - C1     - C30   
     2      1     36      1    9.5770e+01    5.7840e+02 ;     C1 - S1     - H1    
     2      3      4      1    1.2002e+02    5.3279e+02 ;     C1 - C2     - C3    
     2      3     37      1    1.1988e+02    3.7572e+02 ;     C1 - C2     - H2    
     2     35     34      1    1.2002e+02    5.3279e+02 ;     C1 - C30    - C29   
     2     35     57      1    1.1988e+02    3.7572e+02 ;     C1 - C30    - H22   
     3      2     35      1    1.2002e+02    5.3279e+02 ;     C2 - C1     - C30   
     3      4      5      1    1.2002e+02    5.3279e+02 ;     C2 - C3     - C4    
     3      4     38      1    1.1988e+02    3.7572e+02 ;     C2 - C3     - H3    
     4      3     37      1    1.1988e+02    3.7572e+02 ;     C3 - C2     - H2    
     4      5      6      1    1.2006e+02    5.2794e+02 ;     C3 - C4     - S2    
     4      5     34      1    1.2002e+02    5.3279e+02 ;     C3 - C4     - C29   
     5      4     38      1    1.1988e+02    3.7572e+02 ;     C4 - C3     - H3    
     5      6      7      1    9.8920e+01    8.0274e+02 ;     C4 - S2     - C5    
     5     34     35      1    1.2002e+02    5.3279e+02 ;     C4 - C29    - C30   
     5     34     56      1    1.1988e+02    3.7572e+02 ;     C4 - C29    - H21   
     6      5     34      1    1.2006e+02    5.2794e+02 ;     S2 - C4     - C29   
     6      7      8      1    1.2006e+02    5.2794e+02 ;     S2 - C5     - C6    
     6      7     33      1    1.2006e+02    5.2794e+02 ;     S2 - C5     - C28   
     7      8      9      1    1.2002e+02    5.3279e+02 ;     C5 - C6     - C7    
     7      8     39      1    1.1988e+02    3.7572e+02 ;     C5 - C6     - H4    
     7     33     32      1    1.2002e+02    5.3279e+02 ;     C5 - C28    - C27   
     7     33     55      1    1.1988e+02    3.7572e+02 ;     C5 - C28    - H20   
     8      7     33      1    1.2002e+02    5.3279e+02 ;     C6 - C5     - C28   
     8      9     10      1    1.2002e+02    5.3279e+02 ;     C6 - C7     - C8    
     8      9     40      1    1.1988e+02    3.7572e+02 ;     C6 - C7     - H5    
     9      8     39      1    1.1988e+02    3.7572e+02 ;     C7 - C6     - H4    
     9     10     11      1    1.2006e+02    5.2794e+02 ;     C7 - C8     - S3    
     9     10     32      1    1.2002e+02    5.3279e+02 ;     C7 - C8     - C27   
    10      9     40      1    1.1988e+02    3.7572e+02 ;     C8 - C7     - H5    
    10     11     12      1    9.8920e+01    8.0274e+02 ;     C8 - S3     - C9    
    10     32     33      1    1.2002e+02    5.3279e+02 ;     C8 - C27    - C28   
    10     32     54      1    1.1988e+02    3.7572e+02 ;     C8 - C27    - H19   
    11     10     32      1    1.2006e+02    5.2794e+02 ;     S3 - C8     - C27   
    11     12     13      1    1.2006e+02    5.2794e+02 ;     S3 - C9     - C10   
    11     12     31      1    1.2006e+02    5.2794e+02 ;     S3 - C9     - C26   
    12     13     14      1    1.2002e+02    5.3279e+02 ;     C9 - C10    - C11   
    12     13     41      1    1.1988e+02    3.7572e+02 ;     C9 - C10    - H6    
    12     31     30      1    1.2002e+02    5.3279e+02 ;     C9 - C26    - C25   
    12     31     53      1    1.1988e+02    3.7572e+02 ;     C9 - C26    - H18   
    13     12     31      1    1.2002e+02    5.3279e+02 ;    C10 - C9     - C26   
    13     14     15      1    1.2002e+02    5.3279e+02 ;    C10 - C11    - C12   
    13     14     42      1    1.1988e+02    3.7572e+02 ;    C10 - C11    - H7    
    14     13     41      1    1.1988e+02    3.7572e+02 ;    C11 - C10    - H6    
    14     15     16      1    1.2006e+02    5.2794e+02 ;    C11 - C12    - S4    
    14     15     30      1    1.2002e+02    5.3279e+02 ;    C11 - C12    - C25   
    15     14     42      1    1.1988e+02    3.7572e+02 ;    C12 - C11    - H7    
    15     16     17      1    9.8920e+01    8.0274e+02 ;    C12 - S4     - C13   
    15     30     31      1    1.2002e+02    5.3279e+02 ;    C12 - C25    - C26   
    15     30     52      1    1.1988e+02    3.7572e+02 ;    C12 - C25    - H17   
    16     15     30      1    1.2006e+02    5.2794e+02 ;     S4 - C12    - C25   
    16     17     18      1    1.2006e+02    5.2794e+02 ;     S4 - C13    - C14   
    16     17     29      1    1.2006e+02    5.2794e+02 ;     S4 - C13    - C24   
    17     18     19      1    1.2002e+02    5.3279e+02 ;    C13 - C14    - C15   
    17     18     43      1    1.1988e+02    3.7572e+02 ;    C13 - C14    - H8    
    17     29     28      1    1.2002e+02    5.3279e+02 ;    C13 - C24    - C23   
    17     29     51      1    1.1988e+02    3.7572e+02 ;    C13 - C24    - H16   
    18     17     29      1    1.2002e+02    5.3279e+02 ;    C14 - C13    - C24   
    18     19     20      1    1.2002e+02    5.3279e+02 ;    C14 - C15    - C16   
    18     19     44      1    1.1988e+02    3.7572e+02 ;    C14 - C15    - H9    
    19     18     43      1    1.1988e+02    3.7572e+02 ;    C15 - C14    - H8    
    19     20     21      1    1.2006e+02    5.2794e+02 ;    C15 - C16    - S5    
    19     20     28      1    1.2002e+02    5.3279e+02 ;    C15 - C16    - C23   
    20     19     44      1    1.1988e+02    3.7572e+02 ;    C16 - C15    - H9    
    20     21     22      1    9.8920e+01    8.0274e+02 ;    C16 - S5     - C17   
    20     28     29      1    1.2002e+02    5.3279e+02 ;    C16 - C23    - C24   
    20     28     50      1    1.1988e+02    3.7572e+02 ;    C16 - C23    - H15   
    21     20     28      1    1.2006e+02    5.2794e+02 ;     S5 - C16    - C23   
    21     22     23      1    1.2006e+02    5.2794e+02 ;     S5 - C17    - C18   
    21     22     27      1    1.2006e+02    5.2794e+02 ;     S5 - C17    - C22   
    22     23     24      1    1.2002e+02    5.3279e+02 ;    C17 - C18    - C19   
    22     23     45      1    1.1988e+02    3.7572e+02 ;    C17 - C18    - H10   
    22     27     26      1    1.2002e+02    5.3279e+02 ;    C17 - C22    - C21   
    22     27     49      1    1.1988e+02    3.7572e+02 ;    C17 - C22    - H14   
    23     22     27      1    1.2002e+02    5.3279e+02 ;    C18 - C17    - C22   
    23     24     25      1    1.2002e+02    5.3279e+02 ;    C18 - C19    - C20   
    23     24     46      1    1.1988e+02    3.7572e+02 ;    C18 - C19    - H11   
    24     23     45      1    1.1988e+02    3.7572e+02 ;    C19 - C18    - H10   
    24     25     26      1    1.2002e+02    5.3279e+02 ;    C19 - C20    - C21   
    24     25     47      1    1.1988e+02    3.7572e+02 ;    C19 - C20    - H12   
    25     24     46      1    1.1988e+02    3.7572e+02 ;    C20 - C19    - H11   
    25     26     27      1    1.2002e+02    5.3279e+02 ;    C20 - C21    - C22   
    25     26     48      1    1.1988e+02    3.7572e+02 ;    C20 - C21    - H13   
    26     25     47      1    1.1988e+02    3.7572e+02 ;    C21 - C20    - H12   
    26     27     49      1    1.1988e+02    3.7572e+02 ;    C21 - C22    - H14   
    27     26     48      1    1.1988e+02    3.7572e+02 ;    C22 - C21    - H13   
    28     29     51      1    1.1988e+02    3.7572e+02 ;    C23 - C24    - H16   
    29     28     50      1    1.1988e+02    3.7572e+02 ;    C24 - C23    - H15   
    30     31     53      1    1.1988e+02    3.7572e+02 ;    C25 - C26    - H18   
    31     30     52      1    1.1988e+02    3.7572e+02 ;    C26 - C25    - H17   
    32     33     55      1    1.1988e+02    3.7572e+02 ;    C27 - C28    - H20   
    33     32     54      1    1.1988e+02    3.7572e+02 ;    C28 - C27    - H19   
    34     35     57      1    1.1988e+02    3.7572e+02 ;    C29 - C30    - H22   
    35     34     56      1    1.1988e+02    3.7572e+02 ;    C30 - C29    - H21   
    58     59     60      1    1.2178e+02    5.2492e+02 ;     S1 - C1     - C2    
    58     59     92      1    1.2178e+02    5.2492e+02 ;     S1 - C1     - C30   
    59     58     93      1    9.5770e+01    5.7840e+02 ;     C1 - S1     - H1    
    59     60     61      1    1.2002e+02    5.3279e+02 ;     C1 - C2     - C3    
    59     60     94      1    1.1988e+02    3.7572e+02 ;     C1 - C2     - H2    
    59     92     91      1    1.2002e+02    5.3279e+02 ;     C1 - C30    - C29   
    59     92    114      1    1.1988e+02    3.7572e+02 ;     C1 - C30    - H22   
    60     59     92      1    1.2002e+02    5.3279e+02 ;     C2 - C1     - C30   
    60     61     62      1    1.2002e+02    5.3279e+02 ;     C2 - C3     - C4    
    60     61     95      1    1.1988e+02    3.7572e+02 ;     C2 - C3     - H3    
    61     60     94      1    1.1988e+02    3.7572e+02 ;     C3 - C2     - H2    
    61     62     63      1    1.2006e+02    5.2794e+02 ;     C3 - C4     - S2    
    61     62     91      1    1.2002e+02    5.3279e+02 ;     C3 - C4     - C29   
    62     61     95      1    1.1988e+02    3.7572e+02 ;     C4 - C3     - H3    
    62     63     64      1    9.8920e+01    8.0274e+02 ;     C4 - S2     - C5    
    62     91     92      1    1.2002e+02    5.3279e+02 ;     C4 - C29    - C30   
    62     91    113      1    1.1988e+02    3.7572e+02 ;     C4 - C29    - H21   
    63     62     91      1    1.2006e+02    5.2794e+02 ;     S2 - C4     - C29   
    63     64     65      1    1.2006e+02    5.2794e+02 ;     S2 - C5     - C6    
    63     64     90      1    1.2006e+02    5.2794e+02 ;     S2 - C5     - C28   
    64     65     66      1    1.2002e+02    5.3279e+02 ;     C5 - C6     - C7    
    64     65     96      1    1.1988e+02    3.7572e+02 ;     C5 - C6     - H4    
    64     90     89      1    1.2002e+02    5.3279e+02 ;     C5 - C28    - C27   
    64     90    112      1    1.1988e+02    3.7572e+02 ;     C5 - C28    - H20   
    65     64     90      1    1.2002e+02    5.3279e+02 ;     C6 - C5     - C28   
    65     66     67      1    1.2002e+02    5.3279e+02 ;     C6 - C7     - C8    
    65     66     97      1    1.1988e+02    3.7572e+02 ;     C6 - C7     - H5    
    66     65     96      1    1.1988e+02    3.7572e+02 ;     C7 - C6     - H4    
    66     67     68      1    1.2006e+02    5.2794e+02 ;     C7 - C8     - S3    
    66     67     89      1    1.2002e+02    5.3279e+02 ;     C7 - C8     - C27   
    67     66     97      1    1.1988e+02    3.7572e+02 ;     C8 - C7     - H5    
    67     68     69      1    9.8920e+01    8.0274e+02 ;     C8 - S3     - C9    
    67     89     90      1    1.2002e+02    5.3279e+02 ;     C8 - C27    - C28   
    67     89    111      1    1.1988e+02    3.7572e+02 ;     C8 - C27    - H19   
    68     67     89      1    1.2006e+02    5.2794e+02 ;     S3 - C8     - C27   
    68     69     70      1    1.2006e+02    5.2794e+02 ;     S3 - C9     - C10   
    68     69     88      1    1.2006e+02    5.2794e+02 ;     S3 - C9     - C26   
    69     70     71      1    1.2002e+02    5.3279e+02 ;     C9 - C10    - C11   
    69     70     98      1    1.1988e+02    3.7572e+02 ;     C9 - C10    - H6    
    69     88     87      1    1.2002e+02    5.3279e+02 ;     C9 - C26    - C25   
    69     88    110      1    1.1988e+02    3.7572e+02 ;     C9 - C26    - H18   
    70     69     88      1    1.2002e+02    5.3279e+02 ;    C10 - C9     - C26   
    70     71     72      1    1.2002e+02    5.3279e+02 ;    C10 - C11    - C12   
    70     71     99      1    1.1988e+02    3.7572e+02 ;    C10 - C11    - H7    
    71     70     98      1    1.1988e+02    3.7572e+02 ;    C11 - C10    - H6    
    71     72     73      1    1.2006e+02    5.2794e+02 ;    C11 - C12    - S4    
    71     72     87      1    1.2002e+02    5.3279e+02 ;    C11 - C12    - C25   
    72     71     99      1    1.1988e+02    3.7572e+02 ;    C12 - C11    - H7    
    72     73     74      1    9.8920e+01    8.0274e+02 ;    C12 - S4     - C13   
    72     87     88      1    1.2002e+02    5.3279e+02 ;    C12 - C25    - C26   
    72     87    109      1    1.1988e+02    3.7572e+02 ;    C12 - C25    - H17   
    73     72     87      1    1.2006e+02    5.2794e+02 ;     S4 - C12    - C25   
    73     74     75      1    1.2006e+02    5.2794e+02 ;     S4 - C13    - C14   
    73     74     86      1    1.2006e+02    5.2794e+02 ;     S4 - C13    - C24   
    74     75     76      1    1.2002e+02    5.3279e+02 ;    C13 - C14    - C15   
    74     75    100      1    1.1988e+02    3.7572e+02 ;    C13 - C14    - H8    
    74     86     85      1    1.2002e+02    5.3279e+02 ;    C13 - C24    - C23   
    74     86    108      1    1.1988e+02    3.7572e+02 ;    C13 - C24    - H16   
    75     74     86      1    1.2002e+02    5.3279e+02 ;    C14 - C13    - C24   
    75     76     77      1    1.2002e+02    5.3279e+02 ;    C14 - C15    - C16   
    75     76    101      1    1.1988e+02    3.7572e+02 ;    C14 - C15    - H9    
    76     75    100      1    1.1988e+02    3.7572e+02 ;    C15 - C14    - H8    
    76     77     78      1    1.2006e+02    5.2794e+02 ;    C15 - C16    - S5    
    76     77     85      1    1.2002e+02    5.3279e+02 ;    C15 - C16    - C23   
    77     76    101      1    1.1988e+02    3.7572e+02 ;    C16 - C15    - H9    
    77     78     79      1    9.8920e+01    8.0274e+02 ;    C16 - S5     - C17   
    77     85     86      1    1.2002e+02    5.3279e+02 ;    C16 - C23    - C24   
    77     85    107      1    1.1988e+02    3.7572e+02 ;    C16 - C23    - H15   
    78     77     85      1    1.2006e+02    5.2794e+02 ;     S5 - C16    - C23   
    78     79     80      1    1.2006e+02    5.2794e+02 ;     S5 - C17    - C18   
    78     79     84      1    1.2006e+02    5.2794e+02 ;     S5 - C17    - C22   
    79     80     81      1    1.2002e+02    5.3279e+02 ;    C17 - C18    - C19   
    79     80    102      1    1.1988e+02    3.7572e+02 ;    C17 - C18    - H10   
    79     84     83      1    1.2002e+02    5.3279e+02 ;    C17 - C22    - C21   
    79     84    106      1    1.1988e+02    3.7572e+02 ;    C17 - C22    - H14   
    80     79     84      1    1.2002e+02    5.3279e+02 ;    C18 - C17    - C22   
    80     81     82      1    1.2002e+02    5.3279e+02 ;    C18 - C19    - C20   
    80     81    103      1    1.1988e+02    3.7572e+02 ;    C18 - C19    - H11   
    81     80    102      1    1.1988e+02    3.7572e+02 ;    C19 - C18    - H10   
    81     82     83      1    1.2002e+02    5.3279e+02 ;    C19 - C20    - C21   
    81     82    104      1    1.1988e+02    3.7572e+02 ;    C19 - C20    - H12   
    82     81    103      1    1.1988e+02    3.7572e+02 ;    C20 - C19    - H11   
    82     83     84      1    1.2002e+02    5.3279e+02 ;    C20 - C21    - C22   
    82     83    105      1    1.1988e+02    3.7572e+02 ;    C20 - C21    - H13   
    83     82    104      1    1.1988e+02    3.7572e+02 ;    C21 - C20    - H12   
    83     84    106      1    1.1988e+02    3.7572e+02 ;    C21 - C22    - H14   
    84     83    105      1    1.1988e+02    3.7572e+02 ;    C22 - C21    - H13   
    85     86    108      1    1.1988e+02    3.7572e+02 ;    C23 - C24    - H16   
    86     85    107      1    1.1988e+02    3.7572e+02 ;    C24 - C23    - H15   
    87     88    110      1    1.1988e+02    3.7572e+02 ;    C25 - C26    - H18   
    88     87    109      1    1.1988e+02    3.7572e+02 ;    C26 - C25    - H17   
    89     90    112      1    1.1988e+02    3.7572e+02 ;    C27 - C28    - H20   
    90     89    111      1    1.1988e+02    3.7572e+02 ;    C28 - C27    - H19   
    91     92    114      1    1.1988e+02    3.7572e+02 ;    C29 - C30    - H22   
    92     91    113      1    1.1988e+02    3.7572e+02 ;    C30 - C29    - H21   
   115    116    117      1    1.2178e+02    5.2492e+02 ;     S1 - C1     - C2    
   115    116    149      1    1.2178e+02    5.2492e+02 ;     S1 - C1     - C30   
   116    115    150      1    9.5770e+01    5.7840e+02 ;     C1 - S1     - H1    
   116    117    118      1    1.2002e+02    5.3279e+02 ;     C1 - C2     - C3    
   116    117    151      1    1.1988e+02    3.7572e+02 ;     C1 - C2     - H2    
   116    149    148      1    1.2002e+02    5.3279e+02 ;     C1 - C30    - C29   
   116    149    171      1    1.1988e+02    3.7572e+02 ;     C1 - C30    - H22   
   117    116    149      1    1.2002e+02    5.3279e+02 ;     C2 - C1     - C30   
   117    118    119      1    1.2002e+02    5.3279e+02 ;     C2 - C3     - C4    
   117    118    152      1    1.1988e+02    3.7572e+02 ;     C2 - C3     - H3    
   118    117    151      1    1.1988e+02    3.7572e+02 ;     C3 - C2     - H2    
   118    119    120      1    1.2006e+02    5.2794e+02 ;     C3 - C4     - S2    
   118    119    148      1    1.2002e+02    5.3279e+02 ;     C3 - C4     - C29   
   119    118    152      1    1.1988e+02    3.7572e+02 ;     C4 - C3     - H3    
   119    120    121      1    9.8920e+01    8.0274e+02 ;     C4 - S2     - C5    
   119    148    149      1    1.2002e+02    5.3279e+02 ;     C4 - C29    - C30   
   119    148    170      1    1.1988e+02    3.7572e+02 ;     C4 - C29    - H21   
   120    119    148      1    1.2006e+02    5.2794e+02 ;     S2 - C4     - C29   
   120    121    122      1    1.2006e+02    5.2794e+02 ;     S2 - C5     - C6    
   120    121    147      1    1.2006e+02    5.2794e+02 ;     S2 - C5     - C28   
   121    122    123      1    1.2002e+02    5.3279e+02 ;     C5 - C6     - C7    
   121    122    153      1    1.1988e+02    3.7572e+02 ;     C5 - C6     - H4    
   121    147    146      1    1.2002e+02    5.3279e+02 ;     C5 - C28    - C27   
   121    147    169      1    1.1988e+02    3.7572e+02 ;     C5 - C28    - H20   
   122    121    147      1    1.2002e+02    5.3279e+02 ;     C6 - C5     - C28   
   122    123    124      1    1.2002e+02    5.3279e+02 ;     C6 - C7     - C8    
   122    123    154      1    1.1988e+02    3.7572e+02 ;     C6 - C7     - H5    
   123    122    153      1    1.1988e+02    3.7572e+02 ;     C7 - C6     - H4    
   123    124    125      1    1.2006e+02    5.2794e+02 ;     C7 - C8     - S3    
   123    124    146      1    1.2002e+02    5.3279e+02 ;     C7 - C8     - C27   
   124    123    154      1    1.1988e+02    3.7572e+02 ;     C8 - C7     - H5    
   124    125    126      1    9.8920e+01    8.0274e+02 ;     C8 - S3     - C9    
   124    146    147      1    1.2002e+02    5.3279e+02 ;     C8 - C27    - C28   
   124    146    168      1    1.1988e+02    3.7572e+02 ;     C8 - C27    - H19   
   125    124    146      1    1.2006e+02    5.2794e+02 ;     S3 - C8     - C27   
   125    126    127      1    1.2006e+02    5.2794e+02 ;     S3 - C9     - C10   
   125    126    145      1    1.2006e+02    5.2794e+02 ;     S3 - C9     - C26   
   126    127    128      1    1.2002e+02    5.3279e+02 ;     C9 - C10    - C11   
   126    127    155      1    1.1988e+02    3.7572e+02 ;     C9 - C10    - H6    
   126    145    144      1    1.2002e+02    5.3279e+02 ;     C9 - C26    - C25   
   126    145    167      1    1.1988e+02    3.7572e+02 ;     C9 - C26    - H18   
   127    126    145      1    1.2002e+02    5.3279e+02 ;    C10 - C9     - C26   
   127    128    129      1    1.2002e+02    5.3279e+02 ;    C10 - C11    - C12   
   127    128    156      1    1.1988e+02    3.7572e+02 ;    C10 - C11    - H7    
   128    127    155      1    1.1988e+02    3.7572e+02 ;    C11 - C10    - H6    
   128    129    130      1    1.2006e+02    5.2794e+02 ;    C11 - C12    - S4    
   128    129    144      1    1.2002e+02    5.3279e+02 ;    C11 - C12    - C25   
   129    128    156      1    1.1988e+02    3.7572e+02 ;    C12 - C11    - H7    
   129    130    131      1    9.8920e+01    8.0274e+02 ;    C12 - S4     - C13   
   129    144    145      1    1.2002e+02    5.3279e+02 ;    C12 - C25    - C26   
   129    144    166      1    1.1988e+02    3.7572e+02 ;    C12 - C25    - H17   
   130    129    144      1    1.2006e+02    5.2794e+02 ;     S4 - C12    - C25   
   130    131    132      1    1.2006e+02    5.2794e+02 ;     S4 - C13    - C14   
   130    131    143      1    1.2006e+02    5.2794e+02 ;     S4 - C13    - C24   
   131    132    133      1    1.2002e+02    5.3279e+02 ;    C13 - C14    - C15   
   131    132    157      1    1.1988e+02    3.7572e+02 ;    C13 - C14    - H8    
   131    143    142      1    1.2002e+02    5.3279e+02 ;    C13 - C24    - C23   
   131    143    165      1    1.1988e+02    3.7572e+02 ;    C13 - C24    - H16   
   132    131    143      1    1.2002e+02    5.3279e+02 ;    C14 - C13    - C24   
   132    133    134      1    1.2002e+02    5.3279e+02 ;    C14 - C15    - C16   
   132    133    158      1    1.1988e+02    3.7572e+02 ;    C14 - C15    - H9    
   133    132    157      1    1.1988e+02    3.7572e+02 ;    C15 - C14    - H8    
   133    134    135      1    1.2006e+02    5.2794e+02 ;    C15 - C16    - S5    
   133    134    142      1    1.2002e+02    5.3279e+02 ;    C15 - C16    - C23   
   134    133    158      1    1.1988e+02    3.7572e+02 ;    C16 - C15    - H9    
   134    135    136      1    9.8920e+01    8.0274e+02 ;    C16 - S5     - C17   
   134    142    143      1    1.2002e+02    5.3279e+02 ;    C16 - C23    - C24   
   134    142    164      1    1.1988e+02    3.7572e+02 ;    C16 - C23    - H15   
   135    134    142      1    1.2006e+02    5.2794e+02 ;     S5 - C16    - C23   
   135    136    137      1    1.2006e+02    5.2794e+02 ;     S5 - C17    - C18   
   135    136    141      1    1.2006e+02    5.2794e+02 ;     S5 - C17    - C22   
   136    137    138      1    1.2002e+02    5.3279e+02 ;    C17 - C18    - C19   
   136    137    159      1    1.1988e+02    3.7572e+02 ;    C17 - C18    - H10   
   136    141    140      1    1.2002e+02    5.3279e+02 ;    C17 - C22    - C21   
   136    141    163      1    1.1988e+02    3.7572e+02 ;    C17 - C22    - H14   
   137    136    141      1    1.2002e+02    5.3279e+02 ;    C18 - C17    - C22   
   137    138    139      1    1.2002e+02    5.3279e+02 ;    C18 - C19    - C20   
   137    138    160      1    1.1988e+02    3.7572e+02 ;    C18 - C19    - H11   
   138    137    159      1    1.1988e+02    3.7572e+02 ;    C19 - C18    - H10   
   138    139    140      1    1.2002e+02    5.3279e+02 ;    C19 - C20    - C21   
   138    139    161      1    1.1988e+02    3.7572e+02 ;    C19 - C20    - H12   
   139    138    160      1    1.1988e+02    3.7572e+02 ;    C20 - C19    - H11   
   139    140    141      1    1.2002e+02    5.3279e+02 ;    C20 - C21    - C22   
   139    140    162      1    1.1988e+02    3.7572e+02 ;    C20 - C21    - H13   
   140    139    161      1    1.1988e+02    3.7572e+02 ;    C21 - C20    - H12   
   140    141    163      1    1.1988e+02    3.7572e+02 ;    C21 - C22    - H14   
   141    140    162      1    1.1988e+02    3.7572e+02 ;    C22 - C21    - H13   
   142    143    165      1    1.1988e+02    3.7572e+02 ;    C23 - C24    - H16   
   143    142    164      1    1.1988e+02    3.7572e+02 ;    C24 - C23    - H15   
   144    145    167      1    1.1988e+02    3.7572e+02 ;    C25 - C26    - H18   
   145    144    166      1    1.1988e+02    3.7572e+02 ;    C26 - C25    - H17   
   146    147    169      1    1.1988e+02    3.7572e+02 ;    C27 - C28    - H20   
   147    146    168      1    1.1988e+02    3.7572e+02 ;    C28 - C27    - H19   
   148    149    171      1    1.1988e+02    3.7572e+02 ;    C29 - C30    - H22   
   149    148    170      1    1.1988e+02    3.7572e+02 ;    C30 - C29    - H21   
   172    173    174      1    1.2178e+02    5.2492e+02 ;     S1 - C1     - C2    
   172    173    206      1    1.2178e+02    5.2492e+02 ;     S1 - C1     - C30   
   173    172    207      1    9.5770e+01    5.7840e+02 ;     C1 - S1     - H1    
   173    174    175      1    1.2002e+02    5.3279e+02 ;     C1 - C2     - C3    
   173    174    208      1    1.1988e+02    3.7572e+02 ;     C1 - C2     - H2    
   173    206    205      1    1.2002e+02    5.3279e+02 ;     C1 - C30    - C29   
   173    206    228      1    1.1988e+02    3.7572e+02 ;     C1 - C30    - H22   
   174    173    206      1    1.2002e+02    5.3279e+02 ;     C2 - C1     - C30   
   174    175    176      1    1.2002e+02    5.3279e+02 ;     C2 - C3     - C4    
   174    175    209      1    1.1988e+02    3.7572e+02 ;     C2 - C3     - H3    
   175    174    208      1    1.1988e+02    3.7572e+02 ;     C3 - C2     - H2    
   175    176    177      1    1.2006e+02    5.2794e+02 ;     C3 - C4     - S2    
   175    176    205      1    1.2002e+02    5.3279e+02 ;     C3 - C4     - C29   
   176    175    209      1    1.1988e+02    3.7572e+02 ;     C4 - C3     - H3    
   176    177    178      1    9.8920e+01    8.0274e+02 ;     C4 - S2     - C5    
   176    205    206      1    1.2002e+02    5.3279e+02 ;     C4 - C29    - C30   
   176    205    227      1    1.1988e+02    3.7572e+02 ;     C4 - C29    - H21   
   177    176    205      1    1.2006e+02    5.2794e+02 ;     S2 - C4     - C29   
   177    178    179      1    1.2006e+02    5.2794e+02 ;     S2 - C5     - C6    
   177    178    204      1    1.2006e+02    5.2794e+02 ;     S2 - C5     - C28   
   178    179    180      1    1.2002e+02    5.3279e+02 ;     C5 - C6     - C7    
   178    179    210      1    1.1988e+02    3.7572e+02 ;     C5 - C6     - H4    
   178    204    203      1    1.2002e+02    5.3279e+02 ;     C5 - C28    - C27   
   178    204    226      1    1.1988e+02    3.7572e+02 ;     C5 - C28    - H20   
   179    178    204      1    1.2002e+02    5.3279e+02 ;     C6 - C5     - C28   
   179    180    181      1    1.2002e+02    5.3279e+02 ;     C6 - C7     - C8    
   179    180    211      1    1.1988e+02    3.7572e+02 ;     C6 - C7     - H5    
   180    179    210      1    1.1988e+02    3.7572e+02 ;     C7 - C6     - H4    
   180    181    182      1    1.2006e+02    5.2794e+02 ;     C7 - C8     - S3    
   180    181    203      1    1.2002e+02    5.3279e+02 ;     C7 - C8     - C27   
   181    180    211      1    1.1988e+02    3.7572e+02 ;     C8 - C7     - H5    
   181    182    183      1    9.8920e+01    8.0274e+02 ;     C8 - S3     - C9    
   181    203    204      1    1.2002e+02    5.3279e+02 ;     C8 - C27    - C28   
   181    203    225      1    1.1988e+02    3.7572e+02 ;     C8 - C27    - H19   
   182    181    203      1    1.2006e+02    5.2794e+02 ;     S3 - C8     - C27   
   182    183    184      1    1.2006e+02    5.2794e+02 ;     S3 - C9     - C10   
   182    183    202      1    1.2006e+02    5.2794e+02 ;     S3 - C9     - C26   
   183    184    185      1    1.2002e+02    5.3279e+02 ;     C9 - C10    - C11   
   183    184    212      1    1.1988e+02    3.7572e+02 ;     C9 - C10    - H6    
   183    202    201      1    1.2002e+02    5.3279e+02 ;     C9 - C26    - C25   
   183    202    224      1    1.1988e+02    3.7572e+02 ;     C9 - C26    - H18   
   184    183    202      1    1.2002e+02    5.3279e+02 ;    C10 - C9     - C26   
   184    185    186      1    1.2002e+02    5.3279e+02 ;    C10 - C11    - C12   
   184    185    213      1    1.1988e+02    3.7572e+02 ;    C10 - C11    - H7    
   185    184    212      1    1.1988e+02    3.7572e+02 ;    C11 - C10    - H6    
   185    186    187      1    1.2006e+02    5.2794e+02 ;    C11 - C12    - S4    
   185    186    201      1    1.2002e+02    5.3279e+02 ;    C11 - C12    - C25   
   186    185    213      1    1.1988e+02    3.7572e+02 ;    C12 - C11    - H7    
   186    187    188      1    9.8920e+01    8.0274e+02 ;    C12 - S4     - C13   
   186    201    202      1    1.2002e+02    5.3279e+02 ;    C12 - C25    - C26   
   186    201    223      1    1.1988e+02    3.7572e+02 ;    C12 - C25    - H17   
   187    186    201      1    1.2006e+02    5.2794e+02 ;     S4 - C12    - C25   
   187    188    189      1    1.2006e+02    5.2794e+02 ;     S4 - C13    - C14   
   187    188    200      1    1.2006e+02    5.2794e+02 ;     S4 - C13    - C24   
   188    189    190      1    1.2002e+02    5.3279e+02 ;    C13 - C14    - C15   
   188    189    214      1    1.1988e+02    3.7572e+02 ;    C13 - C14    - H8    
   188    200    199      1    1.2002e+02    5.3279e+02 ;    C13 - C24    - C23   
   188    200    222      1    1.1988e+02    3.7572e+02 ;    C13 - C24    - H16   
   189    188    200      1    1.2002e+02    5.3279e+02 ;    C14 - C13    - C24   
   189    190    191      1    1.2002e+02    5.3279e+02 ;    C14 - C15    - C16   
   189    190    215      1    1.1988e+02    3.7572e+02 ;    C14 - C15    - H9    
   190    189    214      1    1.1988e+02    3.7572e+02 ;    C15 - C14    - H8    
   190    191    192      1    1.2006e+02    5.2794e+02 ;    C15 - C16    - S5    
   190    191    199      1    1.2002e+02    5.3279e+02 ;    C15 - C16    - C23   
   191    190    215      1    1.1988e+02    3.7572e+02 ;    C16 - C15    - H9    
   191    192    193      1    9.8920e+01    8.0274e+02 ;    C16 - S5     - C17   
   191    199    200      1    1.2002e+02    5.3279e+02 ;    C16 - C23    - C24   
   191    199    221      1    1.1988e+02    3.7572e+02 ;    C16 - C23    - H15   
   192    191    199      1    1.2006e+02    5.2794e+02 ;     S5 - C16    - C23   
   192    193    194      1    1.2006e+02    5.2794e+02 ;     S5 - C17    - C18   
   192    193    198      1    1.2006e+02    5.2794e+02 ;     S5 - C17    - C22   
   193    194    195      1    1.2002e+02    5.3279e+02 ;    C17 - C18    - C19   
   193    194    216      1    1.1988e+02    3.7572e+02 ;    C17 - C18    - H10   
   193    198    197      1    1.2002e+02    5.3279e+02 ;    C17 - C22    - C21   
   193    198    220      1    1.1988e+02    3.7572e+02 ;    C17 - C22    - H14   
   194    193    198      1    1.2002e+02    5.3279e+02 ;    C18 - C17    - C22   
   194    195    196      1    1.2002e+02    5.3279e+02 ;    C18 - C19    - C20   
   194    195    217      1    1.1988e+02    3.7572e+02 ;    C18 - C19    - H11   
   195    194    216      1    1.1988e+02    3.7572e+02 ;    C19 - C18    - H10   
   195    196    197      1    1.2002e+02    5.3279e+02 ;    C19 - C20    - C21   
   195    196    218      1    1.1988e+02    3.7572e+02 ;    C19 - C20    - H12   
   196    195    217      1    1.1988e+02    3.7572e+02 ;    C20 - C19    - H11   
   196    197    198      1    1.2002e+02    5.3279e+02 ;    C20 - C21    - C22   
   196    197    219      1    1.1988e+02    3.7572e+02 ;    C20 - C21    - H13   
   197    196    218      1    1.1988e+02    3.7572e+02 ;    C21 - C20    - H12   
   197    198    220      1    1.1988e+02    3.7572e+02 ;    C21 - C22    - H14   
   198    197    219      1    1.1988e+02    3.7572e+02 ;    C22 - C21    - H13   
   199    200    222      1    1.1988e+02    3.7572e+02 ;    C23 - C24    - H16   
   200    199    221      1    1.1988e+02    3.7572e+02 ;    C24 - C23    - H15   
   201    202    224      1    1.1988e+02    3.7572e+02 ;    C25 - C26    - H18   
   202    201    223      1    1.1988e+02    3.7572e+02 ;    C26 - C25    - H17   
   203    204    226      1    1.1988e+02    3.7572e+02 ;    C27 - C28    - H20   
   204    203    225      1    1.1988e+02    3.7572e+02 ;    C28 - C27    - H19   
   205    206    228      1    1.1988e+02    3.7572e+02 ;    C29 - C30    - H22   
   206    205    227      1    1.1988e+02    3.7572e+02 ;    C30 - C29    - H21   
   229    230    231      1    1.2178e+02    5.2492e+02 ;     S1 - C1     - C2    
   229    230    263      1    1.2178e+02    5.2492e+02 ;     S1 - C1     - C30   
   230    229    264      1    9.5770e+01    5.7840e+02 ;     C1 - S1     - H1    
   230    231    232      1    1.2002e+02    5.3279e+02 ;     C1 - C2     - C3    
   230    231    265      1    1.1988e+02    3.7572e+02 ;     C1 - C2     - H2    
   230    263    262      1    1.2002e+02    5.3279e+02 ;     C1 - C30    - C29   
   230    263    285      1    1.1988e+02    3.7572e+02 ;     C1 - C30    - H22   
   231    230    263      1    1.2002e+02    5.3279e+02 ;     C2 - C1     - C30   
   231    232    233      1    1.2002e+02    5.3279e+02 ;     C2 - C3     - C4    
   231    232    266      1    1.1988e+02    3.7572e+02 ;     C2 - C3     - H3    
   232    231    265      1    1.1988e+02    3.7572e+02 ;     C3 - C2     - H2    
   232    233    234      1    1.2006e+02    5.2794e+02 ;     C3 - C4     - S2    
   232    233    262      1    1.2002e+02    5.3279e+02 ;     C3 - C4     - C29   
   233    232    266      1    1.1988e+02    3.7572e+02 ;     C4 - C3     - H3    
   233    234    235      1    9.8920e+01    8.0274e+02 ;     C4 - S2     - C5    
   233    262    263      1    1.2002e+02    5.3279e+02 ;     C4 - C29    - C30   
   233    262    284      1    1.1988e+02    3.7572e+02 ;     C4 - C29    - H21   
   234    233    262      1    1.2006e+02    5.2794e+02 ;     S2 - C4     - C29   
   234    235    236      1    1.2006e+02    5.2794e+02 ;     S2 - C5     - C6    
   234    235    261      1    1.2006e+02    5.2794e+02 ;     S2 - C5     - C28   
   235    236    237      1    1.2002e+02    5.3279e+02 ;     C5 - C6     - C7    
   235    236    267      1    1.1988e+02    3.7572e+02 ;     C5 - C6     - H4    
   235    261    260      1    1.2002e+02    5.3279e+02 ;     C5 - C28    - C27   
   235    261    283      1    1.1988e+02    3.7572e+02 ;     C5 - C28    - H20   
   236    235    261      1    1.2002e+02    5.3279e+02 ;     C6 - C5     - C28   
   236    237    238      1    1.2002e+02    5.3279e+02 ;     C6 - C7     - C8    
   236    237    268      1    1.1988e+02    3.7572e+02 ;     C6 - C7     - H5    
   237    236    267      1    1.1988e+02    3.7572e+02 ;     C7 - C6     - H4    
   237    238    239      1    1.2006e+02    5.2794e+02 ;     C7 - C8     - S3    
   237    238    260      1    1.2002e+02    5.3279e+02 ;     C7 - C8     - C27   
   238    237    268      1    1.1988e+02    3.7572e+02 ;     C8 - C7     - H5    
   238    239    240      1    9.8920e+01    8.0274e+02 ;     C8 - S3     - C9    
   238    260    261      1    1.2002e+02    5.3279e+02 ;     C8 - C27    - C28   
   238    260    282      1    1.1988e+02    3.7572e+02 ;     C8 - C27    - H19   
   239    238    260      1    1.2006e+02    5.2794e+02 ;     S3 - C8     - C27   
   239    240    241      1    1.2006e+02    5.2794e+02 ;     S3 - C9     - C10   
   239    240    259      1    1.2006e+02    5.2794e+02 ;     S3 - C9     - C26   
   240    241    242      1    1.2002e+02    5.3279e+02 ;     C9 - C10    - C11   
   240    241    269      1    1.1988e+02    3.7572e+02 ;     C9 - C10    - H6    
   240    259    258      1    1.2002e+02    5.3279e+02 ;     C9 - C26    - C25   
   240    259    281      1    1.1988e+02    3.7572e+02 ;     C9 - C26    - H18   
   241    240    259      1    1.2002e+02    5.3279e+02 ;    C10 - C9     - C26   
   241    242    243      1    1.2002e+02    5.3279e+02 ;    C10 - C11    - C12   
   241    242    270      1    1.1988e+02    3.7572e+02 ;    C10 - C11    - H7    
   242    241    269      1    1.1988e+02    3.7572e+02 ;    C11 - C10    - H6    
   242    243    244      1    1.2006e+02    5.2794e+02 ;    C11 - C12    - S4    
   242    243    258      1    1.2002e+02    5.3279e+02 ;    C11 - C12    - C25   
   243    242    270      1    1.1988e+02    3.7572e+02 ;    C12 - C11    - H7    
   243    244    245      1    9.8920e+01    8.0274e+02 ;    C12 - S4     - C13   
   243    258    259      1    1.2002e+02    5.3279e+02 ;    C12 - C25    - C26   
   243    258    280      1    1.1988e+02    3.7572e+02 ;    C12 - C25    - H17   
   244    243    258      1    1.2006e+02    5.2794e+02 ;     S4 - C12    - C25   
   244    245    246      1    1.2006e+02    5.2794e+02 ;     S4 - C13    - C14   
   244    245    257      1    1.2006e+02    5.2794e+02 ;     S4 - C13    - C24   
   245    246    247      1    1.2002e+02    5.3279e+02 ;    C13 - C14    - C15   
   245    246    271      1    1.1988e+02    3.7572e+02 ;    C13 - C14    - H8    
   245    257    256      1    1.2002e+02    5.3279e+02 ;    C13 - C24    - C23   
   245    257    279      1    1.1988e+02    3.7572e+02 ;    C13 - C24    - H16   
   246    245    257      1    1.2002e+02    5.3279e+02 ;    C14 - C13    - C24   
   246    247    248      1    1.2002e+02    5.3279e+02 ;    C14 - C15    - C16   
   246    247    272      1    1.1988e+02    3.7572e+02 ;    C14 - C15    - H9    
   247    246    271      1    1.1988e+02    3.7572e+02 ;    C15 - C14    - H8    
   247    248    249      1    1.2006e+02    5.2794e+02 ;    C15 - C16    - S5    
   247    248    256      1    1.2002e+02    5.3279e+02 ;    C15 - C16    - C23   
   248    247    272      1    1.1988e+02    3.7572e+02 ;    C16 - C15    - H9    
   248    249    250      1    9.8920e+01    8.0274e+02 ;    C16 - S5     - C17   
   248    256    257      1    1.2002e+02    5.3279e+02 ;    C16 - C23    - C24   
   248    256    278      1    1.1988e+02    3.7572e+02 ;    C16 - C23    - H15   
   249    248    256      1    1.2006e+02    5.2794e+02 ;     S5 - C16    - C23   
   249    250    251      1    1.2006e+02    5.2794e+02 ;     S5 - C17    - C18   
   249    250    255      1    1.2006e+02    5.2794e+02 ;     S5 - C17    - C22   
   250    251    252      1    1.2002e+02    5.3279e+02 ;    C17 - C18    - C19   
   250    251    273      1    1.1988e+02    3.7572e+02 ;    C17 - C18    - H10   
   250    255    254      1    1.2002e+02    5.3279e+02 ;    C17 - C22    - C21   
   250    255    277      1    1.1988e+02    3.7572e+02 ;    C17 - C22    - H14   
   251    250    255      1    1.2002e+02    5.3279e+02 ;    C18 - C17    - C22   
   251    252    253      1    1.2002e+02    5.3279e+02 ;    C18 - C19    - C20   
   251    252    274      1    1.1988e+02    3.7572e+02 ;    C18 - C19    - H11   
   252    251    273      1    1.1988e+02    3.7572e+02 ;    C19 - C18    - H10   
   252    253    254      1    1.2002e+02    5.3279e+02 ;    C19 - C20    - C21   
   252    253    275      1    1.1988e+02    3.7572e+02 ;    C19 - C20    - H12   
   253    252    274      1    1.1988e+02    3.7572e+02 ;    C20 - C19    - H11   
   253    254    255      1    1.2002e+02    5.3279e+02 ;    C20 - C21    - C22   
   253    254    276      1    1.1988e+02    3.7572e+02 ;    C20 - C21    - H13   
   254    253    275      1    1.1988e+02    3.7572e+02 ;    C21 - C20    - H12   
   254    255    277      1    1.1988e+02    3.7572e+02 ;    C21 - C22    - H14   
   255    254    276      1    1.1988e+02    3.7572e+02 ;    C22 - C21    - H13   
   256    257    279      1    1.1988e+02    3.7572e+02 ;    C23 - C24    - H16   
   257    256    278      1    1.1988e+02    3.7572e+02 ;    C24 - C23    - H15   
   258    259    281      1    1.1988e+02    3.7572e+02 ;    C25 - C26    - H18   
   259    258    280      1    1.1988e+02    3.7572e+02 ;    C26 - C25    - H17   
   260    261    283      1    1.1988e+02    3.7572e+02 ;    C27 - C28    - H20   
   261    260    282      1    1.1988e+02    3.7572e+02 ;    C28 - C27    - H19   
   262    263    285      1    1.1988e+02    3.7572e+02 ;    C29 - C30    - H22   
   263    262    284      1    1.1988e+02    3.7572e+02 ;    C30 - C29    - H21   
   286    287    288      1    1.2178e+02    5.2492e+02 ;     S1 - C1     - C2    
   286    287    320      1    1.2178e+02    5.2492e+02 ;     S1 - C1     - C30   
   287    286    321      1    9.5770e+01    5.7840e+02 ;     C1 - S1     - H1    
   287    288    289      1    1.2002e+02    5.3279e+02 ;     C1 - C2     - C3    
   287    288    322      1    1.1988e+02    3.7572e+02 ;     C1 - C2     - H2    
   287    320    319      1    1.2002e+02    5.3279e+02 ;     C1 - C30    - C29   
   287    320    342      1    1.1988e+02    3.7572e+02 ;     C1 - C30    - H22   
   288    287    320      1    1.2002e+02    5.3279e+02 ;     C2 - C1     - C30   
   288    289    290      1    1.2002e+02    5.3279e+02 ;     C2 - C3     - C4    
   288    289    323      1    1.1988e+02    3.7572e+02 ;     C2 - C3     - H3    
   289    288    322      1    1.1988e+02    3.7572e+02 ;     C3 - C2     - H2    
   289    290    291      1    1.2006e+02    5.2794e+02 ;     C3 - C4     - S2    
   289    290    319      1    1.2002e+02    5.3279e+02 ;     C3 - C4     - C29   
   290    289    323      1    1.1988e+02    3.7572e+02 ;     C4 - C3     - H3    
   290    291    292      1    9.8920e+01    8.0274e+02 ;     C4 - S2     - C5    
   290    319    320      1    1.2002e+02    5.3279e+02 ;     C4 - C29    - C30   
   290    319    341      1    1.1988e+02    3.7572e+02 ;     C4 - C29    - H21   
   291    290    319      1    1.2006e+02    5.2794e+02 ;     S2 - C4     - C29   
   291    292    293      1    1.2006e+02    5.2794e+02 ;     S2 - C5     - C6    
   291    292    318      1    1.2006e+02    5.2794e+02 ;     S2 - C5     - C28   
   292    293    294      1    1.2002e+02    5.3279e+02 ;     C5 - C6     - C7    
   292    293    324      1    1.1988e+02    3.7572e+02 ;     C5 - C6     - H4    
   292    318    317      1    1.2002e+02    5.3279e+02 ;     C5 - C28    - C27   
   292    318    340      1    1.1988e+02    3.7572e+02 ;     C5 - C28    - H20   
   293    292    318      1    1.2002e+02    5.3279e+02 ;     C6 - C5     - C28   
   293    294    295      1    1.2002e+02    5.3279e+02 ;     C6 - C7     - C8    
   293    294    325      1    1.1988e+02    3.7572e+02 ;     C6 - C7     - H5    
   294    293    324      1    1.1988e+02    3.7572e+02 ;     C7 - C6     - H4    
   294    295    296      1    1.2006e+02    5.2794e+02 ;     C7 - C8     - S3    
   294    295    317      1    1.2002e+02    5.3279e+02 ;     C7 - C8     - C27   
   295    294    325      1    1.1988e+02    3.7572e+02 ;     C8 - C7     - H5    
   295    296    297      1    9.8920e+01    8.0274e+02 ;     C8 - S3     - C9    
   295    317    318      1    1.2002e+02    5.3279e+02 ;     C8 - C27    - C28   
   295    317    339      1    1.1988e+02    3.7572e+02 ;     C8 - C27    - H19   
   296    295    317      1    1.2006e+02    5.2794e+02 ;     S3 - C8     - C27   
   296    297    298      1    1.2006e+02    5.2794e+02 ;     S3 - C9     - C10   
   296    297    316      1    1.2006e+02    5.2794e+02 ;     S3 - C9     - C26   
   297    298    299      1    1.2002e+02    5.3279e+02 ;     C9 - C10    - C11   
   297    298    326      1    1.1988e+02    3.7572e+02 ;     C9 - C10    - H6    
   297    316    315      1    1.2002e+02    5.3279e+02 ;     C9 - C26    - C25   
   297    316    338      1    1.1988e+02    3.7572e+02 ;     C9 - C26    - H18   
   298    297    316      1    1.2002e+02    5.3279e+02 ;    C10 - C9     - C26   
   298    299    300      1    1.2002e+02    5.3279e+02 ;    C10 - C11    - C12   
   298    299    327      1    1.1988e+02    3.7572e+02 ;    C10 - C11    - H7    
   299    298    326      1    1.1988e+02    3.7572e+02 ;    C11 - C10    - H6    
   299    300    301      1    1.2006e+02    5.2794e+02 ;    C11 - C12    - S4    
   299    300    315      1    1.2002e+02    5.3279e+02 ;    C11 - C12    - C25   
   300    299    327      1    1.1988e+02    3.7572e+02 ;    C12 - C11    - H7    
   300    301    302      1    9.8920e+01    8.0274e+02 ;    C12 - S4     - C13   
   300    315    316      1    1.2002e+02    5.3279e+02 ;    C12 - C25    - C26   
   300    315    337      1    1.1988e+02    3.7572e+02 ;    C12 - C25    - H17   
   301    300    315      1    1.2006e+02    5.2794e+02 ;     S4 - C12    - C25   
   301    302    303      1    1.2006e+02    5.2794e+02 ;     S4 - C13    - C14   
   301    302    314      1    1.2006e+02    5.2794e+02 ;     S4 - C13    - C24   
   302    303    304      1    1.2002e+02    5.3279e+02 ;    C13 - C14    - C15   
   302    303    328      1    1.1988e+02    3.7572e+02 ;    C13 - C14    - H8    
   302    314    313      1    1.2002e+02    5.3279e+02 ;    C13 - C24    - C23   
   302    314    336      1    1.1988e+02    3.7572e+02 ;    C13 - C24    - H16   
   303    302    314      1    1.2002e+02    5.3279e+02 ;    C14 - C13    - C24   
   303    304    305      1    1.2002e+02    5.3279e+02 ;    C14 - C15    - C16   
   303    304    329      1    1.1988e+02    3.7572e+02 ;    C14 - C15    - H9    
   304    303    328      1    1.1988e+02    3.7572e+02 ;    C15 - C14    - H8    
   304    305    306      1    1.2006e+02    5.2794e+02 ;    C15 - C16    - S5    
   304    305    313      1    1.2002e+02    5.3279e+02 ;    C15 - C16    - C23   
   305    304    329      1    1.1988e+02    3.7572e+02 ;    C16 - C15    - H9    
   305    306    307      1    9.8920e+01    8.0274e+02 ;    C16 - S5     - C17   
   305    313    314      1    1.2002e+02    5.3279e+02 ;    C16 - C23    - C24   
   305    313    335      1    1.1988e+02    3.7572e+02 ;    C16 - C23    - H15   
   306    305    313      1    1.2006e+02    5.2794e+02 ;     S5 - C16    - C23   
   306    307    308      1    1.2006e+02    5.2794e+02 ;     S5 - C17    - C18   
   306    307    312      1    1.2006e+02    5.2794e+02 ;     S5 - C17    - C22   
   307    308    309      1    1.2002e+02    5.3279e+02 ;    C17 - C18    - C19   
   307    308    330      1    1.1988e+02    3.7572e+02 ;    C17 - C18    - H10   
   307    312    311      1    1.2002e+02    5.3279e+02 ;    C17 - C22    - C21   
   307    312    334      1    1.1988e+02    3.7572e+02 ;    C17 - C22    - H14   
   308    307    312      1    1.2002e+02    5.3279e+02 ;    C18 - C17    - C22   
   308    309    310      1    1.2002e+02    5.3279e+02 ;    C18 - C19    - C20   
   308    309    331      1    1.1988e+02    3.7572e+02 ;    C18 - C19    - H11   
   309    308    330      1    1.1988e+02    3.7572e+02 ;    C19 - C18    - H10   
   309    310    311      1    1.2002e+02    5.3279e+02 ;    C19 - C20    - C21   
   309    310    332      1    1.1988e+02    3.7572e+02 ;    C19 - C20    - H12   
   310    309    331      1    1.1988e+02    3.7572e+02 ;    C20 - C19    - H11   
   310    311    312      1    1.2002e+02    5.3279e+02 ;    C20 - C21    - C22   
   310    311    333      1    1.1988e+02    3.7572e+02 ;    C20 - C21    - H13   
   311    310    332      1    1.1988e+02    3.7572e+02 ;    C21 - C20    - H12   
   311    312    334      1    1.1988e+02    3.7572e+02 ;    C21 - C22    - H14   
   312    311    333      1    1.1988e+02    3.7572e+02 ;    C22 - C21    - H13   
   313    314    336      1    1.1988e+02    3.7572e+02 ;    C23 - C24    - H16   
   314    313    335      1    1.1988e+02    3.7572e+02 ;    C24 - C23    - H15   
   315    316    338      1    1.1988e+02    3.7572e+02 ;    C25 - C26    - H18   
   316    315    337      1    1.1988e+02    3.7572e+02 ;    C26 - C25    - H17   
   317    318    340      1    1.1988e+02    3.7572e+02 ;    C27 - C28    - H20   
   318    317    339      1    1.1988e+02    3.7572e+02 ;    C28 - C27    - H19   
   319    320    342      1    1.1988e+02    3.7572e+02 ;    C29 - C30    - H22   
   320    319    341      1    1.1988e+02    3.7572e+02 ;    C30 - C29    - H21   
   343    344    345      1    1.2178e+02    5.2492e+02 ;     S1 - C1     - C2    
   343    344    377      1    1.2178e+02    5.2492e+02 ;     S1 - C1     - C30   
   344    343    378      1    9.5770e+01    5.7840e+02 ;     C1 - S1     - H1    
   344    345    346      1    1.2002e+02    5.3279e+02 ;     C1 - C2     - C3    
   344    345    379      1    1.1988e+02    3.7572e+02 ;     C1 - C2     - H2    
   344    377    376      1    1.2002e+02    5.3279e+02 ;     C1 - C30    - C29   
   344    377    399      1    1.1988e+02    3.7572e+02 ;     C1 - C30    - H22   
   345    344    377      1    1.2002e+02    5.3279e+02 ;     C2 - C1     - C30   
   345    346    347      1    1.2002e+02    5.3279e+02 ;     C2 - C3     - C4    
   345    346    380      1    1.1988e+02    3.7572e+02 ;     C2 - C3     - H3    
   346    345    379      1    1.1988e+02    3.7572e+02 ;     C3 - C2     - H2    
   346    347    348      1    1.2006e+02    5.2794e+02 ;     C3 - C4     - S2    
   346    347    376      1    1.2002e+02    5.3279e+02 ;     C3 - C4     - C29   
   347    346    380      1    1.1988e+02    3.7572e+02 ;     C4 - C3     - H3    
   347    348    349      1    9.8920e+01    8.0274e+02 ;     C4 - S2     - C5    
   347    376    377      1    1.2002e+02    5.3279e+02 ;     C4 - C29    - C30   
   347    376    398      1    1.1988e+02    3.7572e+02 ;     C4 - C29    - H21   
   348    347    376      1    1.2006e+02    5.2794e+02 ;     S2 - C4     - C29   
   348    349    350      1    1.2006e+02    5.2794e+02 ;     S2 - C5     - C6    
   348    349    375      1    1.2006e+02    5.2794e+02 ;     S2 - C5     - C28   
   349    350    351      1    1.2002e+02    5.3279e+02 ;     C5 - C6     - C7    
   349    350    381      1    1.1988e+02    3.7572e+02 ;     C5 - C6     - H4    
   349    375    374      1    1.2002e+02    5.3279e+02 ;     C5 - C28    - C27   
   349    375    397      1    1.1988e+02    3.7572e+02 ;     C5 - C28    - H20   
   350    349    375      1    1.2002e+02    5.3279e+02 ;     C6 - C5     - C28   
   350    351    352      1    1.2002e+02    5.3279e+02 ;     C6 - C7     - C8    
   350    351    382      1    1.1988e+02    3.7572e+02 ;     C6 - C7     - H5    
   351    350    381      1    1.1988e+02    3.7572e+02 ;     C7 - C6     - H4    
   351    352    353      1    1.2006e+02    5.2794e+02 ;     C7 - C8     - S3    
   351    352    374      1    1.2002e+02    5.3279e+02 ;     C7 - C8     - C27   
   352    351    382      1    1.1988e+02    3.7572e+02 ;     C8 - C7     - H5    
   352    353    354      1    9.8920e+01    8.0274e+02 ;     C8 - S3     - C9    
   352    374    375      1    1.2002e+02    5.3279e+02 ;     C8 - C27    - C28   
   352    374    396      1    1.1988e+02    3.7572e+02 ;     C8 - C27    - H19   
   353    352    374      1    1.2006e+02    5.2794e+02 ;     S3 - C8     - C27   
   353    354    355      1    1.2006e+02    5.2794e+02 ;     S3 - C9     - C10   
   353    354    373      1    1.2006e+02    5.2794e+02 ;     S3 - C9     - C26   
   354    355    356      1    1.2002e+02    5.3279e+02 ;     C9 - C10    - C11   
   354    355    383      1    1.1988e+02    3.7572e+02 ;     C9 - C10    - H6    
   354    373    372      1    1.2002e+02    5.3279e+02 ;     C9 - C26    - C25   
   354    373    395      1    1.1988e+02    3.7572e+02 ;     C9 - C26    - H18   
   355    354    373      1    1.2002e+02    5.3279e+02 ;    C10 - C9     - C26   
   355    356    357      1    1.2002e+02    5.3279e+02 ;    C10 - C11    - C12   
   355    356    384      1    1.1988e+02    3.7572e+02 ;    C10 - C11    - H7    
   356    355    383      1    1.1988e+02    3.7572e+02 ;    C11 - C10    - H6    
   356    357    358      1    1.2006e+02    5.2794e+02 ;    C11 - C12    - S4    
   356    357    372      1    1.2002e+02    5.3279e+02 ;    C11 - C12    - C25   
   357    356    384      1    1.1988e+02    3.7572e+02 ;    C12 - C11    - H7    
   357    358    359      1    9.8920e+01    8.0274e+02 ;    C12 - S4     - C13   
   357    372    373      1    1.2002e+02    5.3279e+02 ;    C12 - C25    - C26   
   357    372    394      1    1.1988e+02    3.7572e+02 ;    C12 - C25    - H17   
   358    357    372      1    1.2006e+02    5.2794e+02 ;     S4 - C12    - C25   
   358    359    360      1    1.2006e+02    5.2794e+02 ;     S4 - C13    - C14   
   358    359    371      1    1.2006e+02    5.2794e+02 ;     S4 - C13    - C24   
   359    360    361      1    1.2002e+02    5.3279e+02 ;    C13 - C14    - C15   
   359    360    385      1    1.1988e+02    3.7572e+02 ;    C13 - C14    - H8    
   359    371    370      1    1.2002e+02    5.3279e+02 ;    C13 - C24    - C23   
   359    371    393      1    1.1988e+02    3.7572e+02 ;    C13 - C24    - H16   
   360    359    371      1    1.2002e+02    5.3279e+02 ;    C14 - C13    - C24   
   360    361    362      1    1.2002e+02    5.3279e+02 ;    C14 - C15    - C16   
   360    361    386      1    1.1988e+02    3.7572e+02 ;    C14 - C15    - H9    
   361    360    385      1    1.1988e+02    3.7572e+02 ;    C15 - C14    - H8    
   361    362    363      1    1.2006e+02    5.2794e+02 ;    C15 - C16    - S5    
   361    362    370      1    1.2002e+02    5.3279e+02 ;    C15 - C16    - C23   
   362    361    386      1    1.1988e+02    3.7572e+02 ;    C16 - C15    - H9    
   362    363    364      1    9.8920e+01    8.0274e+02 ;    C16 - S5     - C17   
   362    370    371      1    1.2002e+02    5.3279e+02 ;    C16 - C23    - C24   
   362    370    392      1    1.1988e+02    3.7572e+02 ;    C16 - C23    - H15   
   363    362    370      1    1.2006e+02    5.2794e+02 ;     S5 - C16    - C23   
   363    364    365      1    1.2006e+02    5.2794e+02 ;     S5 - C17    - C18   
   363    364    369      1    1.2006e+02    5.2794e+02 ;     S5 - C17    - C22   
   364    365    366      1    1.2002e+02    5.3279e+02 ;    C17 - C18    - C19   
   364    365    387      1    1.1988e+02    3.7572e+02 ;    C17 - C18    - H10   
   364    369    368      1    1.2002e+02    5.3279e+02 ;    C17 - C22    - C21   
   364    369    391      1    1.1988e+02    3.7572e+02 ;    C17 - C22    - H14   
   365    364    369      1    1.2002e+02    5.3279e+02 ;    C18 - C17    - C22   
   365    366    367      1    1.2002e+02    5.3279e+02 ;    C18 - C19    - C20   
   365    366    388      1    1.1988e+02    3.7572e+02 ;    C18 - C19    - H11   
   366    365    387      1    1.1988e+02    3.7572e+02 ;    C19 - C18    - H10   
   366    367    368      1    1.2002e+02    5.3279e+02 ;    C19 - C20    - C21   
   366    367    389      1    1.1988e+02    3.7572e+02 ;    C19 - C20    - H12   
   367    366    388      1    1.1988e+02    3.7572e+02 ;    C20 - C19    - H11   
   367    368    369      1    1.2002e+02    5.3279e+02 ;    C20 - C21    - C22   
   367    368    390      1    1.1988e+02    3.7572e+02 ;    C20 - C21    - H13   
   368    367    389      1    1.1988e+02    3.7572e+02 ;    C21 - C20    - H12   
   368    369    391      1    1.1988e+02    3.7572e+02 ;    C21 - C22    - H14   
   369    368    390      1    1.1988e+02    3.7572e+02 ;    C22 - C21    - H13   
   370    371    393      1    1.1988e+02    3.7572e+02 ;    C23 - C24    - H16   
   371    370    392      1    1.1988e+02    3.7572e+02 ;    C24 - C23    - H15   
   372    373    395      1    1.1988e+02    3.7572e+02 ;    C25 - C26    - H18   
   373    372    394      1    1.1988e+02    3.7572e+02 ;    C26 - C25    - H17   
   374    375    397      1    1.1988e+02    3.7572e+02 ;    C27 - C28    - H20   
   375    374    396      1    1.1988e+02    3.7572e+02 ;    C28 - C27    - H19   
   376    377    399      1    1.1988e+02    3.7572e+02 ;    C29 - C30    - H22   
   377    376    398      1    1.1988e+02    3.7572e+02 ;    C30 - C29    - H21   
   400    401    402      1    1.2178e+02    5.2492e+02 ;     S1 - C1     - C2    
   400    401    434      1    1.2178e+02    5.2492e+02 ;     S1 - C1     - C30   
   401    400    435      1    9.5770e+01    5.7840e+02 ;     C1 - S1     - H1    
   401    402    403      1    1.2002e+02    5.3279e+02 ;     C1 - C2     - C3    
   401    402    436      1    1.1988e+02    3.7572e+02 ;     C1 - C2     - H2    
   401    434    433      1    1.2002e+02    5.3279e+02 ;     C1 - C30    - C29   
   401    434    456      1    1.1988e+02    3.7572e+02 ;     C1 - C30    - H22   
   402    401    434      1    1.2002e+02    5.3279e+02 ;     C2 - C1     - C30   
   402    403    404      1    1.2002e+02    5.3279e+02 ;     C2 - C3     - C4    
   402    403    437      1    1.1988e+02    3.7572e+02 ;     C2 - C3     - H3    
   403    402    436      1    1.1988e+02    3.7572e+02 ;     C3 - C2     - H2    
   403    404    405      1    1.2006e+02    5.2794e+02 ;     C3 - C4     - S2    
   403    404    433      1    1.2002e+02    5.3279e+02 ;     C3 - C4     - C29   
   404    403    437      1    1.1988e+02    3.7572e+02 ;     C4 - C3     - H3    
   404    405    406      1    9.8920e+01    8.0274e+02 ;     C4 - S2     - C5    
   404    433    434      1    1.2002e+02    5.3279e+02 ;     C4 - C29    - C30   
   404    433    455      1    1.1988e+02    3.7572e+02 ;     C4 - C29    - H21   
   405    404    433      1    1.2006e+02    5.2794e+02 ;     S2 - C4     - C29   
   405    406    407      1    1.2006e+02    5.2794e+02 ;     S2 - C5     - C6    
   405    406    432      1    1.2006e+02    5.2794e+02 ;     S2 - C5     - C28   
   406    407    408      1    1.2002e+02    5.3279e+02 ;     C5 - C6     - C7    
   406    407    438      1    1.1988e+02    3.7572e+02 ;     C5 - C6     - H4    
   406    432    431      1    1.2002e+02    5.3279e+02 ;     C5 - C28    - C27   
   406    432    454      1    1.1988e+02    3.7572e+02 ;     C5 - C28    - H20   
   407    406    432      1    1.2002e+02    5.3279e+02 ;     C6 - C5     - C28   
   407    408    409      1    1.2002e+02    5.3279e+02 ;     C6 - C7     - C8    
   407    408    439      1    1.1988e+02    3.7572e+02 ;     C6 - C7     - H5    
   408    407    438      1    1.1988e+02    3.7572e+02 ;     C7 - C6     - H4    
   408    409    410      1    1.2006e+02    5.2794e+02 ;     C7 - C8     - S3    
   408    409    431      1    1.2002e+02    5.3279e+02 ;     C7 - C8     - C27   
   409    408    439      1    1.1988e+02    3.7572e+02 ;     C8 - C7     - H5    
   409    410    411      1    9.8920e+01    8.0274e+02 ;     C8 - S3     - C9    
   409    431    432      1    1.2002e+02    5.3279e+02 ;     C8 - C27    - C28   
   409    431    453      1    1.1988e+02    3.7572e+02 ;     C8 - C27    - H19   
   410    409    431      1    1.2006e+02    5.2794e+02 ;     S3 - C8     - C27   
   410    411    412      1    1.2006e+02    5.2794e+02 ;     S3 - C9     - C10   
   410    411    430      1    1.2006e+02    5.2794e+02 ;     S3 - C9     - C26   
   411    412    413      1    1.2002e+02    5.3279e+02 ;     C9 - C10    - C11   
   411    412    440      1    1.1988e+02    3.7572e+02 ;     C9 - C10    - H6    
   411    430    429      1    1.2002e+02    5.3279e+02 ;     C9 - C26    - C25   
   411    430    452      1    1.1988e+02    3.7572e+02 ;     C9 - C26    - H18   
   412    411    430      1    1.2002e+02    5.3279e+02 ;    C10 - C9     - C26   
   412    413    414      1    1.2002e+02    5.3279e+02 ;    C10 - C11    - C12   
   412    413    441      1    1.1988e+02    3.7572e+02 ;    C10 - C11    - H7    
   413    412    440      1    1.1988e+02    3.7572e+02 ;    C11 - C10    - H6    
   413    414    415      1    1.2006e+02    5.2794e+02 ;    C11 - C12    - S4    
   413    414    429      1    1.2002e+02    5.3279e+02 ;    C11 - C12    - C25   
   414    413    441      1    1.1988e+02    3.7572e+02 ;    C12 - C11    - H7    
   414    415    416      1    9.8920e+01    8.0274e+02 ;    C12 - S4     - C13   
   414    429    430      1    1.2002e+02    5.3279e+02 ;    C12 - C25    - C26   
   414    429    451      1    1.1988e+02    3.7572e+02 ;    C12 - C25    - H17   
   415    414    429      1    1.2006e+02    5.2794e+02 ;     S4 - C12    - C25   
   415    416    417      1    1.2006e+02    5.2794e+02 ;     S4 - C13    - C14   
   415    416    428      1    1.2006e+02    5.2794e+02 ;     S4 - C13    - C24   
   416    417    418      1    1.2002e+02    5.3279e+02 ;    C13 - C14    - C15   
   416    417    442      1    1.1988e+02    3.7572e+02 ;    C13 - C14    - H8    
   416    428    427      1    1.2002e+02    5.3279e+02 ;    C13 - C24    - C23   
   416    428    450      1    1.1988e+02    3.7572e+02 ;    C13 - C24    - H16   
   417    416    428      1    1.2002e+02    5.3279e+02 ;    C14 - C13    - C24   
   417    418    419      1    1.2002e+02    5.3279e+02 ;    C14 - C15    - C16   
   417    418    443      1    1.1988e+02    3.7572e+02 ;    C14 - C15    - H9    
   418    417    442      1    1.1988e+02    3.7572e+02 ;    C15 - C14    - H8    
   418    419    420      1    1.2006e+02    5.2794e+02 ;    C15 - C16    - S5    
   418    419    427      1    1.2002e+02    5.3279e+02 ;    C15 - C16    - C23   
   419    418    443      1    1.1988e+02    3.7572e+02 ;    C16 - C15    - H9    
   419    420    421      1    9.8920e+01    8.0274e+02 ;    C16 - S5     - C17   
   419    427    428      1    1.2002e+02    5.3279e+02 ;    C16 - C23    - C24   
   419    427    449      1    1.1988e+02    3.7572e+02 ;    C16 - C23    - H15   
   420    419    427      1    1.2006e+02    5.2794e+02 ;     S5 - C16    - C23   
   420    421    422      1    1.2006e+02    5.2794e+02 ;     S5 - C17    - C18   
   420    421    426      1    1.2006e+02    5.2794e+02 ;     S5 - C17    - C22   
   421    422    423      1    1.2002e+02    5.3279e+02 ;    C17 - C18    - C19   
   421    422    444      1    1.1988e+02    3.7572e+02 ;    C17 - C18    - H10   
   421    426    425      1    1.2002e+02    5.3279e+02 ;    C17 - C22    - C21   
   421    426    448      1    1.1988e+02    3.7572e+02 ;    C17 - C22    - H14   
   422    421    426      1    1.2002e+02    5.3279e+02 ;    C18 - C17    - C22   
   422    423    424      1    1.2002e+02    5.3279e+02 ;    C18 - C19    - C20   
   422    423    445      1    1.1988e+02    3.7572e+02 ;    C18 - C19    - H11   
   423    422    444      1    1.1988e+02    3.7572e+02 ;    C19 - C18    - H10   
   423    424    425      1    1.2002e+02    5.3279e+02 ;    C19 - C20    - C21   
   423    424    446      1    1.1988e+02    3.7572e+02 ;    C19 - C20    - H12   
   424    423    445      1    1.1988e+02    3.7572e+02 ;    C20 - C19    - H11   
   424    425    426      1    1.2002e+02    5.3279e+02 ;    C20 - C21    - C22   
   424    425    447      1    1.1988e+02    3.7572e+02 ;    C20 - C21    - H13   
   425    424    446      1    1.1988e+02    3.7572e+02 ;    C21 - C20    - H12   
   425    426    448      1    1.1988e+02    3.7572e+02 ;    C21 - C22    - H14   
   426    425    447      1    1.1988e+02    3.7572e+02 ;    C22 - C21    - H13   
   427    428    450      1    1.1988e+02    3.7572e+02 ;    C23 - C24    - H16   
   428    427    449      1    1.1988e+02    3.7572e+02 ;    C24 - C23    - H15   
   429    430    452      1    1.1988e+02    3.7572e+02 ;    C25 - C26    - H18   
   430    429    451      1    1.1988e+02    3.7572e+02 ;    C26 - C25    - H17   
   431    432    454      1    1.1988e+02    3.7572e+02 ;    C27 - C28    - H20   
   432    431    453      1    1.1988e+02    3.7572e+02 ;    C28 - C27    - H19   
   433    434    456      1    1.1988e+02    3.7572e+02 ;    C29 - C30    - H22   
   434    433    455      1    1.1988e+02    3.7572e+02 ;    C30 - C29    - H21   
   457    458    459      1    1.2178e+02    5.2492e+02 ;     S1 - C1     - C2    
   457    458    491      1    1.2178e+02    5.2492e+02 ;     S1 - C1     - C30   
   458    457    492      1    9.5770e+01    5.7840e+02 ;     C1 - S1     - H1    
   458    459    460      1    1.2002e+02    5.3279e+02 ;     C1 - C2     - C3    
   458    459    493      1    1.1988e+02    3.7572e+02 ;     C1 - C2     - H2    
   458    491    490      1    1.2002e+02    5.3279e+02 ;     C1 - C30    - C29   
   458    491    513      1    1.1988e+02    3.7572e+02 ;     C1 - C30    - H22   
   459    458    491      1    1.2002e+02    5.3279e+02 ;     C2 - C1     - C30   
   459    460    461      1    1.2002e+02    5.3279e+02 ;     C2 - C3     - C4    
   459    460    494      1    1.1988e+02    3.7572e+02 ;     C2 - C3     - H3    
   460    459    493      1    1.1988e+02    3.7572e+02 ;     C3 - C2     - H2    
   460    461    462      1    1.2006e+02    5.2794e+02 ;     C3 - C4     - S2    
   460    461    490      1    1.2002e+02    5.3279e+02 ;     C3 - C4     - C29   
   461    460    494      1    1.1988e+02    3.7572e+02 ;     C4 - C3     - H3    
   461    462    463      1    9.8920e+01    8.0274e+02 ;     C4 - S2     - C5    
   461    490    491      1    1.2002e+02    5.3279e+02 ;     C4 - C29    - C30   
   461    490    512      1    1.1988e+02    3.7572e+02 ;     C4 - C29    - H21   
   462    461    490      1    1.2006e+02    5.2794e+02 ;     S2 - C4     - C29   
   462    463    464      1    1.2006e+02    5.2794e+02 ;     S2 - C5     - C6    
   462    463    489      1    1.2006e+02    5.2794e+02 ;     S2 - C5     - C28   
   463    464    465      1    1.2002e+02    5.3279e+02 ;     C5 - C6     - C7    
   463    464    495      1    1.1988e+02    3.7572e+02 ;     C5 - C6     - H4    
   463    489    488      1    1.2002e+02    5.3279e+02 ;     C5 - C28    - C27   
   463    489    511      1    1.1988e+02    3.7572e+02 ;     C5 - C28    - H20   
   464    463    489      1    1.2002e+02    5.3279e+02 ;     C6 - C5     - C28   
   464    465    466      1    1.2002e+02    5.3279e+02 ;     C6 - C7     - C8    
   464    465    496      1    1.1988e+02    3.7572e+02 ;     C6 - C7     - H5    
   465    464    495      1    1.1988e+02    3.7572e+02 ;     C7 - C6     - H4    
   465    466    467      1    1.2006e+02    5.2794e+02 ;     C7 - C8     - S3    
   465    466    488      1    1.2002e+02    5.3279e+02 ;     C7 - C8     - C27   
   466    465    496      1    1.1988e+02    3.7572e+02 ;     C8 - C7     - H5    
   466    467    468      1    9.8920e+01    8.0274e+02 ;     C8 - S3     - C9    
   466    488    489      1    1.2002e+02    5.3279e+02 ;     C8 - C27    - C28   
   466    488    510      1    1.1988e+02    3.7572e+02 ;     C8 - C27    - H19   
   467    466    488      1    1.2006e+02    5.2794e+02 ;     S3 - C8     - C27   
   467    468    469      1    1.2006e+02    5.2794e+02 ;     S3 - C9     - C10   
   467    468    487      1    1.2006e+02    5.2794e+02 ;     S3 - C9     - C26   
   468    469    470      1    1.2002e+02    5.3279e+02 ;     C9 - C10    - C11   
   468    469    497      1    1.1988e+02    3.7572e+02 ;     C9 - C10    - H6    
   468    487    486      1    1.2002e+02    5.3279e+02 ;     C9 - C26    - C25   
   468    487    509      1    1.1988e+02    3.7572e+02 ;     C9 - C26    - H18   
   469    468    487      1    1.2002e+02    5.3279e+02 ;    C10 - C9     - C26   
   469    470    471      1    1.2002e+02    5.3279e+02 ;    C10 - C11    - C12   
   469    470    498      1    1.1988e+02    3.7572e+02 ;    C10 - C11    - H7    
   470    469    497      1    1.1988e+02    3.7572e+02 ;    C11 - C10    - H6    
   470    471    472      1    1.2006e+02    5.2794e+02 ;    C11 - C12    - S4    
   470    471    486      1    1.2002e+02    5.3279e+02 ;    C11 - C12    - C25   
   471    470    498      1    1.1988e+02    3.7572e+02 ;    C12 - C11    - H7    
   471    472    473      1    9.8920e+01    8.0274e+02 ;    C12 - S4     - C13   
   471    486    487      1    1.2002e+02    5.3279e+02 ;    C12 - C25    - C26   
   471    486    508      1    1.1988e+02    3.7572e+02 ;    C12 - C25    - H17   
   472    471    486      1    1.2006e+02    5.2794e+02 ;     S4 - C12    - C25   
   472    473    474      1    1.2006e+02    5.2794e+02 ;     S4 - C13    - C14   
   472    473    485      1    1.2006e+02    5.2794e+02 ;     S4 - C13    - C24   
   473    474    475      1    1.2002e+02    5.3279e+02 ;    C13 - C14    - C15   
   473    474    499      1    1.1988e+02    3.7572e+02 ;    C13 - C14    - H8    
   473    485    484      1    1.2002e+02    5.3279e+02 ;    C13 - C24    - C23   
   473    485    507      1    1.1988e+02    3.7572e+02 ;    C13 - C24    - H16   
   474    473    485      1    1.2002e+02    5.3279e+02 ;    C14 - C13    - C24   
   474    475    476      1    1.2002e+02    5.3279e+02 ;    C14 - C15    - C16   
   474    475    500      1    1.1988e+02    3.7572e+02 ;    C14 - C15    - H9    
   475    474    499      1    1.1988e+02    3.7572e+02 ;    C15 - C14    - H8    
   475    476    477      1    1.2006e+02    5.2794e+02 ;    C15 - C16    - S5    
   475    476    484      1    1.2002e+02    5.3279e+02 ;    C15 - C16    - C23   
   476    475    500      1    1.1988e+02    3.7572e+02 ;    C16 - C15    - H9    
   476    477    478      1    9.8920e+01    8.0274e+02 ;    C16 - S5     - C17   
   476    484    485      1    1.2002e+02    5.3279e+02 ;    C16 - C23    - C24   
   476    484    506      1    1.1988e+02    3.7572e+02 ;    C16 - C23    - H15   
   477    476    484      1    1.2006e+02    5.2794e+02 ;     S5 - C16    - C23   
   477    478    479      1    1.2006e+02    5.2794e+02 ;     S5 - C17    - C18   
   477    478    483      1    1.2006e+02    5.2794e+02 ;     S5 - C17    - C22   
   478    479    480      1    1.2002e+02    5.3279e+02 ;    C17 - C18    - C19   
   478    479    501      1    1.1988e+02    3.7572e+02 ;    C17 - C18    - H10   
   478    483    482      1    1.2002e+02    5.3279e+02 ;    C17 - C22    - C21   
   478    483    505      1    1.1988e+02    3.7572e+02 ;    C17 - C22    - H14   
   479    478    483      1    1.2002e+02    5.3279e+02 ;    C18 - C17    - C22   
   479    480    481      1    1.2002e+02    5.3279e+02 ;    C18 - C19    - C20   
   479    480    502      1    1.1988e+02    3.7572e+02 ;    C18 - C19    - H11   
   480    479    501      1    1.1988e+02    3.7572e+02 ;    C19 - C18    - H10   
   480    481    482      1    1.2002e+02    5.3279e+02 ;    C19 - C20    - C21   
   480    481    503      1    1.1988e+02    3.7572e+02 ;    C19 - C20    - H12   
   481    480    502      1    1.1988e+02    3.7572e+02 ;    C20 - C19    - H11   
   481    482    483      1    1.2002e+02    5.3279e+02 ;    C20 - C21    - C22   
   481    482    504      1    1.1988e+02    3.7572e+02 ;    C20 - C21    - H13   
   482    481    503      1    1.1988e+02    3.7572e+02 ;    C21 - C20    - H12   
   482    483    505      1    1.1988e+02    3.7572e+02 ;    C21 - C22    - H14   
   483    482    504      1    1.1988e+02    3.7572e+02 ;    C22 - C21    - H13   
   484    485    507      1    1.1988e+02    3.7572e+02 ;    C23 - C24    - H16   
   485    484    506      1    1.1988e+02    3.7572e+02 ;    C24 - C23    - H15   
   486    487    509      1    1.1988e+02    3.7572e+02 ;    C25 - C26    - H18   
   487    486    508      1    1.1988e+02    3.7572e+02 ;    C26 - C25    - H17   
   488    489    511      1    1.1988e+02    3.7572e+02 ;    C27 - C28    - H20   
   489    488    510      1    1.1988e+02    3.7572e+02 ;    C28 - C27    - H19   
   490    491    513      1    1.1988e+02    3.7572e+02 ;    C29 - C30    - H22   
   491    490    512      1    1.1988e+02    3.7572e+02 ;    C30 - C29    - H21   
   514    515    516      1    1.2178e+02    5.2492e+02 ;     S1 - C1     - C2    
   514    515    548      1    1.2178e+02    5.2492e+02 ;     S1 - C1     - C30   
   515    514    549      1    9.5770e+01    5.7840e+02 ;     C1 - S1     - H1    
   515    516    517      1    1.2002e+02    5.3279e+02 ;     C1 - C2     - C3    
   515    516    550      1    1.1988e+02    3.7572e+02 ;     C1 - C2     - H2    
   515    548    547      1    1.2002e+02    5.3279e+02 ;     C1 - C30    - C29   
   515    548    570      1    1.1988e+02    3.7572e+02 ;     C1 - C30    - H22   
   516    515    548      1    1.2002e+02    5.3279e+02 ;     C2 - C1     - C30   
   516    517    518      1    1.2002e+02    5.3279e+02 ;     C2 - C3     - C4    
   516    517    551      1    1.1988e+02    3.7572e+02 ;     C2 - C3     - H3    
   517    516    550      1    1.1988e+02    3.7572e+02 ;     C3 - C2     - H2    
   517    518    519      1    1.2006e+02    5.2794e+02 ;     C3 - C4     - S2    
   517    518    547      1    1.2002e+02    5.3279e+02 ;     C3 - C4     - C29   
   518    517    551      1    1.1988e+02    3.7572e+02 ;     C4 - C3     - H3    
   518    519    520      1    9.8920e+01    8.0274e+02 ;     C4 - S2     - C5    
   518    547    548      1    1.2002e+02    5.3279e+02 ;     C4 - C29    - C30   
   518    547    569      1    1.1988e+02    3.7572e+02 ;     C4 - C29    - H21   
   519    518    547      1    1.2006e+02    5.2794e+02 ;     S2 - C4     - C29   
   519    520    521      1    1.2006e+02    5.2794e+02 ;     S2 - C5     - C6    
   519    520    546      1    1.2006e+02    5.2794e+02 ;     S2 - C5     - C28   
   520    521    522      1    1.2002e+02    5.3279e+02 ;     C5 - C6     - C7    
   520    521    552      1    1.1988e+02    3.7572e+02 ;     C5 - C6     - H4    
   520    546    545      1    1.2002e+02    5.3279e+02 ;     C5 - C28    - C27   
   520    546    568      1    1.1988e+02    3.7572e+02 ;     C5 - C28    - H20   
   521    520    546      1    1.2002e+02    5.3279e+02 ;     C6 - C5     - C28   
   521    522    523      1    1.2002e+02    5.3279e+02 ;     C6 - C7     - C8    
   521    522    553      1    1.1988e+02    3.7572e+02 ;     C6 - C7     - H5    
   522    521    552      1    1.1988e+02    3.7572e+02 ;     C7 - C6     - H4    
   522    523    524      1    1.2006e+02    5.2794e+02 ;     C7 - C8     - S3    
   522    523    545      1    1.2002e+02    5.3279e+02 ;     C7 - C8     - C27   
   523    522    553      1    1.1988e+02    3.7572e+02 ;     C8 - C7     - H5    
   523    524    525      1    9.8920e+01    8.0274e+02 ;     C8 - S3     - C9    
   523    545    546      1    1.2002e+02    5.3279e+02 ;     C8 - C27    - C28   
   523    545    567      1    1.1988e+02    3.7572e+02 ;     C8 - C27    - H19   
   524    523    545      1    1.2006e+02    5.2794e+02 ;     S3 - C8     - C27   
   524    525    526      1    1.2006e+02    5.2794e+02 ;     S3 - C9     - C10   
   524    525    544      1    1.2006e+02    5.2794e+02 ;     S3 - C9     - C26   
   525    526    527      1    1.2002e+02    5.3279e+02 ;     C9 - C10    - C11   
   525    526    554      1    1.1988e+02    3.7572e+02 ;     C9 - C10    - H6    
   525    544    543      1    1.2002e+02    5.3279e+02 ;     C9 - C26    - C25   
   525    544    566      1    1.1988e+02    3.7572e+02 ;     C9 - C26    - H18   
   526    525    544      1    1.2002e+02    5.3279e+02 ;    C10 - C9     - C26   
   526    527    528      1    1.2002e+02    5.3279e+02 ;    C10 - C11    - C12   
   526    527    555      1    1.1988e+02    3.7572e+02 ;    C10 - C11    - H7    
   527    526    554      1    1.1988e+02    3.7572e+02 ;    C11 - C10    - H6    
   527    528    529      1    1.2006e+02    5.2794e+02 ;    C11 - C12    - S4    
   527    528    543      1    1.2002e+02    5.3279e+02 ;    C11 - C12    - C25   
   528    527    555      1    1.1988e+02    3.7572e+02 ;    C12 - C11    - H7    
   528    529    530      1    9.8920e+01    8.0274e+02 ;    C12 - S4     - C13   
   528    543    544      1    1.2002e+02    5.3279e+02 ;    C12 - C25    - C26   
   528    543    565      1    1.1988e+02    3.7572e+02 ;    C12 - C25    - H17   
   529    528    543      1    1.2006e+02    5.2794e+02 ;     S4 - C12    - C25   
   529    530    531      1    1.2006e+02    5.2794e+02 ;     S4 - C13    - C14   
   529    530    542      1    1.2006e+02    5.2794e+02 ;     S4 - C13    - C24   
   530    531    532      1    1.2002e+02    5.3279e+02 ;    C13 - C14    - C15   
   530    531    556      1    1.1988e+02    3.7572e+02 ;    C13 - C14    - H8    
   530    542    541      1    1.2002e+02    5.3279e+02 ;    C13 - C24    - C23   
   530    542    564      1    1.1988e+02    3.7572e+02 ;    C13 - C24    - H16   
   531    530    542      1    1.2002e+02    5.3279e+02 ;    C14 - C13    - C24   
   531    532    533      1    1.2002e+02    5.3279e+02 ;    C14 - C15    - C16   
   531    532    557      1    1.1988e+02    3.7572e+02 ;    C14 - C15    - H9    
   532    531    556      1    1.1988e+02    3.7572e+02 ;    C15 - C14    - H8    
   532    533    534      1    1.2006e+02    5.2794e+02 ;    C15 - C16    - S5    
   532    533    541      1    1.2002e+02    5.3279e+02 ;    C15 - C16    - C23   
   533    532    557      1    1.1988e+02    3.7572e+02 ;    C16 - C15    - H9    
   533    534    535      1    9.8920e+01    8.0274e+02 ;    C16 - S5     - C17   
   533    541    542      1    1.2002e+02    5.3279e+02 ;    C16 - C23    - C24   
   533    541    563      1    1.1988e+02    3.7572e+02 ;    C16 - C23    - H15   
   534    533    541      1    1.2006e+02    5.2794e+02 ;     S5 - C16    - C23   
   534    535    536      1    1.2006e+02    5.2794e+02 ;     S5 - C17    - C18   
   534    535    540      1    1.2006e+02    5.2794e+02 ;     S5 - C17    - C22   
   535    536    537      1    1.2002e+02    5.3279e+02 ;    C17 - C18    - C19   
   535    536    558      1    1.1988e+02    3.7572e+02 ;    C17 - C18    - H10   
   535    540    539      1    1.2002e+02    5.3279e+02 ;    C17 - C22    - C21   
   535    540    562      1    1.1988e+02    3.7572e+02 ;    C17 - C22    - H14   
   536    535    540      1    1.2002e+02    5.3279e+02 ;    C18 - C17    - C22   
   536    537    538      1    1.2002e+02    5.3279e+02 ;    C18 - C19    - C20   
   536    537    559      1    1.1988e+02    3.7572e+02 ;    C18 - C19    - H11   
   537    536    558      1    1.1988e+02    3.7572e+02 ;    C19 - C18    - H10   
   537    538    539      1    1.2002e+02    5.3279e+02 ;    C19 - C20    - C21   
   537    538    560      1    1.1988e+02    3.7572e+02 ;    C19 - C20    - H12   
   538    537    559      1    1.1988e+02    3.7572e+02 ;    C20 - C19    - H11   
   538    539    540      1    1.2002e+02    5.3279e+02 ;    C20 - C21    - C22   
   538    539    561      1    1.1988e+02    3.7572e+02 ;    C20 - C21    - H13   
   539    538    560      1    1.1988e+02    3.7572e+02 ;    C21 - C20    - H12   
   539    540    562      1    1.1988e+02    3.7572e+02 ;    C21 - C22    - H14   
   540    539    561      1    1.1988e+02    3.7572e+02 ;    C22 - C21    - H13   
   541    542    564      1    1.1988e+02    3.7572e+02 ;    C23 - C24    - H16   
   542    541    563      1    1.1988e+02    3.7572e+02 ;    C24 - C23    - H15   
   543    544    566      1    1.1988e+02    3.7572e+02 ;    C25 - C26    - H18   
   544    543    565      1    1.1988e+02    3.7572e+02 ;    C26 - C25    - H17   
   545    546    568      1    1.1988e+02    3.7572e+02 ;    C27 - C28    - H20   
   546    545    567      1    1.1988e+02    3.7572e+02 ;    C28 - C27    - H19   
   547    548    570      1    1.1988e+02    3.7572e+02 ;    C29 - C30    - H22   
   548    547    569      1    1.1988e+02    3.7572e+02 ;    C30 - C29    - H21   
   571    572    573      1    1.2178e+02    5.2492e+02 ;     S1 - C1     - C2    
   571    572    605      1    1.2178e+02    5.2492e+02 ;     S1 - C1     - C30   
   572    571    606      1    9.5770e+01    5.7840e+02 ;     C1 - S1     - H1    
   572    573    574      1    1.2002e+02    5.3279e+02 ;     C1 - C2     - C3    
   572    573    607      1    1.1988e+02    3.7572e+02 ;     C1 - C2     - H2    
   572    605    604      1    1.2002e+02    5.3279e+02 ;     C1 - C30    - C29   
   572    605    627      1    1.1988e+02    3.7572e+02 ;     C1 - C30    - H22   
   573    572    605      1    1.2002e+02    5.3279e+02 ;     C2 - C1     - C30   
   573    574    575      1    1.2002e+02    5.3279e+02 ;     C2 - C3     - C4    
   573    574    608      1    1.1988e+02    3.7572e+02 ;     C2 - C3     - H3    
   574    573    607      1    1.1988e+02    3.7572e+02 ;     C3 - C2     - H2    
   574    575    576      1    1.2006e+02    5.2794e+02 ;     C3 - C4     - S2    
   574    575    604      1    1.2002e+02    5.3279e+02 ;     C3 - C4     - C29   
   575    574    608      1    1.1988e+02    3.7572e+02 ;     C4 - C3     - H3    
   575    576    577      1    9.8920e+01    8.0274e+02 ;     C4 - S2     - C5    
   575    604    605      1    1.2002e+02    5.3279e+02 ;     C4 - C29    - C30   
   575    604    626      1    1.1988e+02    3.7572e+02 ;     C4 - C29    - H21   
   576    575    604      1    1.2006e+02    5.2794e+02 ;     S2 - C4     - C29   
   576    577    578      1    1.2006e+02    5.2794e+02 ;     S2 - C5     - C6    
   576    577    603      1    1.2006e+02    5.2794e+02 ;     S2 - C5     - C28   
   577    578    579      1    1.2002e+02    5.3279e+02 ;     C5 - C6     - C7    
   577    578    609      1    1.1988e+02    3.7572e+02 ;     C5 - C6     - H4    
   577    603    602      1    1.2002e+02    5.3279e+02 ;     C5 - C28    - C27   
   577    603    625      1    1.1988e+02    3.7572e+02 ;     C5 - C28    - H20   
   578    577    603      1    1.2002e+02    5.3279e+02 ;     C6 - C5     - C28   
   578    579    580      1    1.2002e+02    5.3279e+02 ;     C6 - C7     - C8    
   578    579    610      1    1.1988e+02    3.7572e+02 ;     C6 - C7     - H5    
   579    578    609      1    1.1988e+02    3.7572e+02 ;     C7 - C6     - H4    
   579    580    581      1    1.2006e+02    5.2794e+02 ;     C7 - C8     - S3    
   579    580    602      1    1.2002e+02    5.3279e+02 ;     C7 - C8     - C27   
   580    579    610      1    1.1988e+02    3.7572e+02 ;     C8 - C7     - H5    
   580    581    582      1    9.8920e+01    8.0274e+02 ;     C8 - S3     - C9    
   580    602    603      1    1.2002e+02    5.3279e+02 ;     C8 - C27    - C28   
   580    602    624      1    1.1988e+02    3.7572e+02 ;     C8 - C27    - H19   
   581    580    602      1    1.2006e+02    5.2794e+02 ;     S3 - C8     - C27   
   581    582    583      1    1.2006e+02    5.2794e+02 ;     S3 - C9     - C10   
   581    582    601      1    1.2006e+02    5.2794e+02 ;     S3 - C9     - C26   
   582    583    584      1    1.2002e+02    5.3279e+02 ;     C9 - C10    - C11   
   582    583    611      1    1.1988e+02    3.7572e+02 ;     C9 - C10    - H6    
   582    601    600      1    1.2002e+02    5.3279e+02 ;     C9 - C26    - C25   
   582    601    623      1    1.1988e+02    3.7572e+02 ;     C9 - C26    - H18   
   583    582    601      1    1.2002e+02    5.3279e+02 ;    C10 - C9     - C26   
   583    584    585      1    1.2002e+02    5.3279e+02 ;    C10 - C11    - C12   
   583    584    612      1    1.1988e+02    3.7572e+02 ;    C10 - C11    - H7    
   584    583    611      1    1.1988e+02    3.7572e+02 ;    C11 - C10    - H6    
   584    585    586      1    1.2006e+02    5.2794e+02 ;    C11 - C12    - S4    
   584    585    600      1    1.2002e+02    5.3279e+02 ;    C11 - C12    - C25   
   585    584    612      1    1.1988e+02    3.7572e+02 ;    C12 - C11    - H7    
   585    586    587      1    9.8920e+01    8.0274e+02 ;    C12 - S4     - C13   
   585    600    601      1    1.2002e+02    5.3279e+02 ;    C12 - C25    - C26   
   585    600    622      1    1.1988e+02    3.7572e+02 ;    C12 - C25    - H17   
   586    585    600      1    1.2006e+02    5.2794e+02 ;     S4 - C12    - C25   
   586    587    588      1    1.2006e+02    5.2794e+02 ;     S4 - C13    - C14   
   586    587    599      1    1.2006e+02    5.2794e+02 ;     S4 - C13    - C24   
   587    588    589      1    1.2002e+02    5.3279e+02 ;    C13 - C14    - C15   
   587    588    613      1    1.1988e+02    3.7572e+02 ;    C13 - C14    - H8    
   587    599    598      1    1.2002e+02    5.3279e+02 ;    C13 - C24    - C23   
   587    599    621      1    1.1988e+02    3.7572e+02 ;    C13 - C24    - H16   
   588    587    599      1    1.2002e+02    5.3279e+02 ;    C14 - C13    - C24   
   588    589    590      1    1.2002e+02    5.3279e+02 ;    C14 - C15    - C16   
   588    589    614      1    1.1988e+02    3.7572e+02 ;    C14 - C15    - H9    
   589    588    613      1    1.1988e+02    3.7572e+02 ;    C15 - C14    - H8    
   589    590    591      1    1.2006e+02    5.2794e+02 ;    C15 - C16    - S5    
   589    590    598      1    1.2002e+02    5.3279e+02 ;    C15 - C16    - C23   
   590    589    614      1    1.1988e+02    3.7572e+02 ;    C16 - C15    - H9    
   590    591    592      1    9.8920e+01    8.0274e+02 ;    C16 - S5     - C17   
   590    598    599      1    1.2002e+02    5.3279e+02 ;    C16 - C23    - C24   
   590    598    620      1    1.1988e+02    3.7572e+02 ;    C16 - C23    - H15   
   591    590    598      1    1.2006e+02    5.2794e+02 ;     S5 - C16    - C23   
   591    592    593      1    1.2006e+02    5.2794e+02 ;     S5 - C17    - C18   
   591    592    597      1    1.2006e+02    5.2794e+02 ;     S5 - C17    - C22   
   592    593    594      1    1.2002e+02    5.3279e+02 ;    C17 - C18    - C19   
   592    593    615      1    1.1988e+02    3.7572e+02 ;    C17 - C18    - H10   
   592    597    596      1    1.2002e+02    5.3279e+02 ;    C17 - C22    - C21   
   592    597    619      1    1.1988e+02    3.7572e+02 ;    C17 - C22    - H14   
   593    592    597      1    1.2002e+02    5.3279e+02 ;    C18 - C17    - C22   
   593    594    595      1    1.2002e+02    5.3279e+02 ;    C18 - C19    - C20   
   593    594    616      1    1.1988e+02    3.7572e+02 ;    C18 - C19    - H11   
   594    593    615      1    1.1988e+02    3.7572e+02 ;    C19 - C18    - H10   
   594    595    596      1    1.2002e+02    5.3279e+02 ;    C19 - C20    - C21   
   594    595    617      1    1.1988e+02    3.7572e+02 ;    C19 - C20    - H12   
   595    594    616      1    1.1988e+02    3.7572e+02 ;    C20 - C19    - H11   
   595    596    597      1    1.2002e+02    5.3279e+02 ;    C20 - C21    - C22   
   595    596    618      1    1.1988e+02    3.7572e+02 ;    C20 - C21    - H13   
   596    595    617      1    1.1988e+02    3.7572e+02 ;    C21 - C20    - H12   
   596    597    619      1    1.1988e+02    3.7572e+02 ;    C21 - C22    - H14   
   597    596    618      1    1.1988e+02    3.7572e+02 ;    C22 - C21    - H13   
   598    599    621      1    1.1988e+02    3.7572e+02 ;    C23 - C24    - H16   
   599    598    620      1    1.1988e+02    3.7572e+02 ;    C24 - C23    - H15   
   600    601    623      1    1.1988e+02    3.7572e+02 ;    C25 - C26    - H18   
   601    600    622      1    1.1988e+02    3.7572e+02 ;    C26 - C25    - H17   
   602    603    625      1    1.1988e+02    3.7572e+02 ;    C27 - C28    - H20   
   603    602    624      1    1.1988e+02    3.7572e+02 ;    C28 - C27    - H19   
   604    605    627      1    1.1988e+02    3.7572e+02 ;    C29 - C30    - H22   
   605    604    626      1    1.1988e+02    3.7572e+02 ;    C30 - C29    - H21   
   628    629    630      1    1.2178e+02    5.2492e+02 ;     S1 - C1     - C2    
   628    629    662      1    1.2178e+02    5.2492e+02 ;     S1 - C1     - C30   
   629    628    663      1    9.5770e+01    5.7840e+02 ;     C1 - S1     - H1    
   629    630    631      1    1.2002e+02    5.3279e+02 ;     C1 - C2     - C3    
   629    630    664      1    1.1988e+02    3.7572e+02 ;     C1 - C2     - H2    
   629    662    661      1    1.2002e+02    5.3279e+02 ;     C1 - C30    - C29   
   629    662    684      1    1.1988e+02    3.7572e+02 ;     C1 - C30    - H22   
   630    629    662      1    1.2002e+02    5.3279e+02 ;     C2 - C1     - C30   
   630    631    632      1    1.2002e+02    5.3279e+02 ;     C2 - C3     - C4    
   630    631    665      1    1.1988e+02    3.7572e+02 ;     C2 - C3     - H3    
   631    630    664      1    1.1988e+02    3.7572e+02 ;     C3 - C2     - H2    
   631    632    633      1    1.2006e+02    5.2794e+02 ;     C3 - C4     - S2    
   631    632    661      1    1.2002e+02    5.3279e+02 ;     C3 - C4     - C29   
   632    631    665      1    1.1988e+02    3.7572e+02 ;     C4 - C3     - H3    
   632    633    634      1    9.8920e+01    8.0274e+02 ;     C4 - S2     - C5    
   632    661    662      1    1.2002e+02    5.3279e+02 ;     C4 - C29    - C30   
   632    661    683      1    1.1988e+02    3.7572e+02 ;     C4 - C29    - H21   
   633    632    661      1    1.2006e+02    5.2794e+02 ;     S2 - C4     - C29   
   633    634    635      1    1.2006e+02    5.2794e+02 ;     S2 - C5     - C6    
   633    634    660      1    1.2006e+02    5.2794e+02 ;     S2 - C5     - C28   
   634    635    636      1    1.2002e+02    5.3279e+02 ;     C5 - C6     - C7    
   634    635    666      1    1.1988e+02    3.7572e+02 ;     C5 - C6     - H4    
   634    660    659      1    1.2002e+02    5.3279e+02 ;     C5 - C28    - C27   
   634    660    682      1    1.1988e+02    3.7572e+02 ;     C5 - C28    - H20   
   635    634    660      1    1.2002e+02    5.3279e+02 ;     C6 - C5     - C28   
   635    636    637      1    1.2002e+02    5.3279e+02 ;     C6 - C7     - C8    
   635    636    667      1    1.1988e+02    3.7572e+02 ;     C6 - C7     - H5    
   636    635    666      1    1.1988e+02    3.7572e+02 ;     C7 - C6     - H4    
   636    637    638      1    1.2006e+02    5.2794e+02 ;     C7 - C8     - S3    
   636    637    659      1    1.2002e+02    5.3279e+02 ;     C7 - C8     - C27   
   637    636    667      1    1.1988e+02    3.7572e+02 ;     C8 - C7     - H5    
   637    638    639      1    9.8920e+01    8.0274e+02 ;     C8 - S3     - C9    
   637    659    660      1    1.2002e+02    5.3279e+02 ;     C8 - C27    - C28   
   637    659    681      1    1.1988e+02    3.7572e+02 ;     C8 - C27    - H19   
   638    637    659      1    1.2006e+02    5.2794e+02 ;     S3 - C8     - C27   
   638    639    640      1    1.2006e+02    5.2794e+02 ;     S3 - C9     - C10   
   638    639    658      1    1.2006e+02    5.2794e+02 ;     S3 - C9     - C26   
   639    640    641      1    1.2002e+02    5.3279e+02 ;     C9 - C10    - C11   
   639    640    668      1    1.1988e+02    3.7572e+02 ;     C9 - C10    - H6    
   639    658    657      1    1.2002e+02    5.3279e+02 ;     C9 - C26    - C25   
   639    658    680      1    1.1988e+02    3.7572e+02 ;     C9 - C26    - H18   
   640    639    658      1    1.2002e+02    5.3279e+02 ;    C10 - C9     - C26   
   640    641    642      1    1.2002e+02    5.3279e+02 ;    C10 - C11    - C12   
   640    641    669      1    1.1988e+02    3.7572e+02 ;    C10 - C11    - H7    
   641    640    668      1    1.1988e+02    3.7572e+02 ;    C11 - C10    - H6    
   641    642    643      1    1.2006e+02    5.2794e+02 ;    C11 - C12    - S4    
   641    642    657      1    1.2002e+02    5.3279e+02 ;    C11 - C12    - C25   
   642    641    669      1    1.1988e+02    3.7572e+02 ;    C12 - C11    - H7    
   642    643    644      1    9.8920e+01    8.0274e+02 ;    C12 - S4     - C13   
   642    657    658      1    1.2002e+02    5.3279e+02 ;    C12 - C25    - C26   
   642    657    679      1    1.1988e+02    3.7572e+02 ;    C12 - C25    - H17   
   643    642    657      1    1.2006e+02    5.2794e+02 ;     S4 - C12    - C25   
   643    644    645      1    1.2006e+02    5.2794e+02 ;     S4 - C13    - C14   
   643    644    656      1    1.2006e+02    5.2794e+02 ;     S4 - C13    - C24   
   644    645    646      1    1.2002e+02    5.3279e+02 ;    C13 - C14    - C15   
   644    645    670      1    1.1988e+02    3.7572e+02 ;    C13 - C14    - H8    
   644    656    655      1    1.2002e+02    5.3279e+02 ;    C13 - C24    - C23   
   644    656    678      1    1.1988e+02    3.7572e+02 ;    C13 - C24    - H16   
   645    644    656      1    1.2002e+02    5.3279e+02 ;    C14 - C13    - C24   
   645    646    647      1    1.2002e+02    5.3279e+02 ;    C14 - C15    - C16   
   645    646    671      1    1.1988e+02    3.7572e+02 ;    C14 - C15    - H9    
   646    645    670      1    1.1988e+02    3.7572e+02 ;    C15 - C14    - H8    
   646    647    648      1    1.2006e+02    5.2794e+02 ;    C15 - C16    - S5    
   646    647    655      1    1.2002e+02    5.3279e+02 ;    C15 - C16    - C23   
   647    646    671      1    1.1988e+02    3.7572e+02 ;    C16 - C15    - H9    
   647    648    649      1    9.8920e+01    8.0274e+02 ;    C16 - S5     - C17   
   647    655    656      1    1.2002e+02    5.3279e+02 ;    C16 - C23    - C24   
   647    655    677      1    1.1988e+02    3.7572e+02 ;    C16 - C23    - H15   
   648    647    655      1    1.2006e+02    5.2794e+02 ;     S5 - C16    - C23   
   648    649    650      1    1.2006e+02    5.2794e+02 ;     S5 - C17    - C18   
   648    649    654      1    1.2006e+02    5.2794e+02 ;     S5 - C17    - C22   
   649    650    651      1    1.2002e+02    5.3279e+02 ;    C17 - C18    - C19   
   649    650    672      1    1.1988e+02    3.7572e+02 ;    C17 - C18    - H10   
   649    654    653      1    1.2002e+02    5.3279e+02 ;    C17 - C22    - C21   
   649    654    676      1    1.1988e+02    3.7572e+02 ;    C17 - C22    - H14   
   650    649    654      1    1.2002e+02    5.3279e+02 ;    C18 - C17    - C22   
   650    651    652      1    1.2002e+02    5.3279e+02 ;    C18 - C19    - C20   
   650    651    673      1    1.1988e+02    3.7572e+02 ;    C18 - C19    - H11   
   651    650    672      1    1.1988e+02    3.7572e+02 ;    C19 - C18    - H10   
   651    652    653      1    1.2002e+02    5.3279e+02 ;    C19 - C20    - C21   
   651    652    674      1    1.1988e+02    3.7572e+02 ;    C19 - C20    - H12   
   652    651    673      1    1.1988e+02    3.7572e+02 ;    C20 - C19    - H11   
   652    653    654      1    1.2002e+02    5.3279e+02 ;    C20 - C21    - C22   
   652    653    675      1    1.1988e+02    3.7572e+02 ;    C20 - C21    - H13   
   653    652    674      1    1.1988e+02    3.7572e+02 ;    C21 - C20    - H12   
   653    654    676      1    1.1988e+02    3.7572e+02 ;    C21 - C22    - H14   
   654    653    675      1    1.1988e+02    3.7572e+02 ;    C22 - C21    - H13   
   655    656    678      1    1.1988e+02    3.7572e+02 ;    C23 - C24    - H16   
   656    655    677      1    1.1988e+02    3.7572e+02 ;    C24 - C23    - H15   
   657    658    680      1    1.1988e+02    3.7572e+02 ;    C25 - C26    - H18   
   658    657    679      1    1.1988e+02    3.7572e+02 ;    C26 - C25    - H17   
   659    660    682      1    1.1988e+02    3.7572e+02 ;    C27 - C28    - H20   
   660    659    681      1    1.1988e+02    3.7572e+02 ;    C28 - C27    - H19   
   661    662    684      1    1.1988e+02    3.7572e+02 ;    C29 - C30    - H22   
   662    661    683      1    1.1988e+02    3.7572e+02 ;    C30 - C29    - H21   
   685    686    687      1    1.2178e+02    5.2492e+02 ;     S1 - C1     - C2    
   685    686    719      1    1.2178e+02    5.2492e+02 ;     S1 - C1     - C30   
   686    685    720      1    9.5770e+01    5.7840e+02 ;     C1 - S1     - H1    
   686    687    688      1    1.2002e+02    5.3279e+02 ;     C1 - C2     - C3    
   686    687    721      1    1.1988e+02    3.7572e+02 ;     C1 - C2     - H2    
   686    719    718      1    1.2002e+02    5.3279e+02 ;     C1 - C30    - C29   
   686    719    741      1    1.1988e+02    3.7572e+02 ;     C1 - C30    - H22   
   687    686    719      1    1.2002e+02    5.3279e+02 ;     C2 - C1     - C30   
   687    688    689      1    1.2002e+02    5.3279e+02 ;     C2 - C3     - C4    
   687    688    722      1    1.1988e+02    3.7572e+02 ;     C2 - C3     - H3    
   688    687    721      1    1.1988e+02    3.7572e+02 ;     C3 - C2     - H2    
   688    689    690      1    1.2006e+02    5.2794e+02 ;     C3 - C4     - S2    
   688    689    718      1    1.2002e+02    5.3279e+02 ;     C3 - C4     - C29   
   689    688    722      1    1.1988e+02    3.7572e+02 ;     C4 - C3     - H3    
   689    690    691      1    9.8920e+01    8.0274e+02 ;     C4 - S2     - C5    
   689    718    719      1    1.2002e+02    5.3279e+02 ;     C4 - C29    - C30   
   689    718    740      1    1.1988e+02    3.7572e+02 ;     C4 - C29    - H21   
   690    689    718      1    1.2006e+02    5.2794e+02 ;     S2 - C4     - C29   
   690    691    692      1    1.2006e+02    5.2794e+02 ;     S2 - C5     - C6    
   690    691    717      1    1.2006e+02    5.2794e+02 ;     S2 - C5     - C28   
   691    692    693      1    1.2002e+02    5.3279e+02 ;     C5 - C6     - C7    
   691    692    723      1    1.1988e+02    3.7572e+02 ;     C5 - C6     - H4    
   691    717    716      1    1.2002e+02    5.3279e+02 ;     C5 - C28    - C27   
   691    717    739      1    1.1988e+02    3.7572e+02 ;     C5 - C28    - H20   
   692    691    717      1    1.2002e+02    5.3279e+02 ;     C6 - C5     - C28   
   692    693    694      1    1.2002e+02    5.3279e+02 ;     C6 - C7     - C8    
   692    693    724      1    1.1988e+02    3.7572e+02 ;     C6 - C7     - H5    
   693    692    723      1    1.1988e+02    3.7572e+02 ;     C7 - C6     - H4    
   693    694    695      1    1.2006e+02    5.2794e+02 ;     C7 - C8     - S3    
   693    694    716      1    1.2002e+02    5.3279e+02 ;     C7 - C8     - C27   
   694    693    724      1    1.1988e+02    3.7572e+02 ;     C8 - C7     - H5    
   694    695    696      1    9.8920e+01    8.0274e+02 ;     C8 - S3     - C9    
   694    716    717      1    1.2002e+02    5.3279e+02 ;     C8 - C27    - C28   
   694    716    738      1    1.1988e+02    3.7572e+02 ;     C8 - C27    - H19   
   695    694    716      1    1.2006e+02    5.2794e+02 ;     S3 - C8     - C27   
   695    696    697      1    1.2006e+02    5.2794e+02 ;     S3 - C9     - C10   
   695    696    715      1    1.2006e+02    5.2794e+02 ;     S3 - C9     - C26   
   696    697    698      1    1.2002e+02    5.3279e+02 ;     C9 - C10    - C11   
   696    697    725      1    1.1988e+02    3.7572e+02 ;     C9 - C10    - H6    
   696    715    714      1    1.2002e+02    5.3279e+02 ;     C9 - C26    - C25   
   696    715    737      1    1.1988e+02    3.7572e+02 ;     C9 - C26    - H18   
   697    696    715      1    1.2002e+02    5.3279e+02 ;    C10 - C9     - C26   
   697    698    699      1    1.2002e+02    5.3279e+02 ;    C10 - C11    - C12   
   697    698    726      1    1.1988e+02    3.7572e+02 ;    C10 - C11    - H7    
   698    697    725      1    1.1988e+02    3.7572e+02 ;    C11 - C10    - H6    
   698    699    700      1    1.2006e+02    5.2794e+02 ;    C11 - C12    - S4    
   698    699    714      1    1.2002e+02    5.3279e+02 ;    C11 - C12    - C25   
   699    698    726      1    1.1988e+02    3.7572e+02 ;    C12 - C11    - H7    
   699    700    701      1    9.8920e+01    8.0274e+02 ;    C12 - S4     - C13   
   699    714    715      1    1.2002e+02    5.3279e+02 ;    C12 - C25    - C26   
   699    714    736      1    1.1988e+02    3.7572e+02 ;    C12 - C25    - H17   
   700    699    714      1    1.2006e+02    5.2794e+02 ;     S4 - C12    - C25   
   700    701    702      1    1.2006e+02    5.2794e+02 ;     S4 - C13    - C14   
   700    701    713      1    1.2006e+02    5.2794e+02 ;     S4 - C13    - C24   
   701    702    703      1    1.2002e+02    5.3279e+02 ;    C13 - C14    - C15   
   701    702    727      1    1.1988e+02    3.7572e+02 ;    C13 - C14    - H8    
   701    713    712      1    1.2002e+02    5.3279e+02 ;    C13 - C24    - C23   
   701    713    735      1    1.1988e+02    3.7572e+02 ;    C13 - C24    - H16   
   702    701    713      1    1.2002e+02    5.3279e+02 ;    C14 - C13    - C24   
   702    703    704      1    1.2002e+02    5.3279e+02 ;    C14 - C15    - C16   
   702    703    728      1    1.1988e+02    3.7572e+02 ;    C14 - C15    - H9    
   703    702    727      1    1.1988e+02    3.7572e+02 ;    C15 - C14    - H8    
   703    704    705      1    1.2006e+02    5.2794e+02 ;    C15 - C16    - S5    
   703    704    712      1    1.2002e+02    5.3279e+02 ;    C15 - C16    - C23   
   704    703    728      1    1.1988e+02    3.7572e+02 ;    C16 - C15    - H9    
   704    705    706      1    9.8920e+01    8.0274e+02 ;    C16 - S5     - C17   
   704    712    713      1    1.2002e+02    5.3279e+02 ;    C16 - C23    - C24   
   704    712    734      1    1.1988e+02    3.7572e+02 ;    C16 - C23    - H15   
   705    704    712      1    1.2006e+02    5.2794e+02 ;     S5 - C16    - C23   
   705    706    707      1    1.2006e+02    5.2794e+02 ;     S5 - C17    - C18   
   705    706    711      1    1.2006e+02    5.2794e+02 ;     S5 - C17    - C22   
   706    707    708      1    1.2002e+02    5.3279e+02 ;    C17 - C18    - C19   
   706    707    729      1    1.1988e+02    3.7572e+02 ;    C17 - C18    - H10   
   706    711    710      1    1.2002e+02    5.3279e+02 ;    C17 - C22    - C21   
   706    711    733      1    1.1988e+02    3.7572e+02 ;    C17 - C22    - H14   
   707    706    711      1    1.2002e+02    5.3279e+02 ;    C18 - C17    - C22   
   707    708    709      1    1.2002e+02    5.3279e+02 ;    C18 - C19    - C20   
   707    708    730      1    1.1988e+02    3.7572e+02 ;    C18 - C19    - H11   
   708    707    729      1    1.1988e+02    3.7572e+02 ;    C19 - C18    - H10   
   708    709    710      1    1.2002e+02    5.3279e+02 ;    C19 - C20    - C21   
   708    709    731      1    1.1988e+02    3.7572e+02 ;    C19 - C20    - H12   
   709    708    730      1    1.1988e+02    3.7572e+02 ;    C20 - C19    - H11   
   709    710    711      1    1.2002e+02    5.3279e+02 ;    C20 - C21    - C22   
   709    710    732      1    1.1988e+02    3.7572e+02 ;    C20 - C21    - H13   
   710    709    731      1    1.1988e+02    3.7572e+02 ;    C21 - C20    - H12   
   710    711    733      1    1.1988e+02    3.7572e+02 ;    C21 - C22    - H14   
   711    710    732      1    1.1988e+02    3.7572e+02 ;    C22 - C21    - H13   
   712    713    735      1    1.1988e+02    3.7572e+02 ;    C23 - C24    - H16   
   713    712    734      1    1.1988e+02    3.7572e+02 ;    C24 - C23    - H15   
   714    715    737      1    1.1988e+02    3.7572e+02 ;    C25 - C26    - H18   
   715    714    736      1    1.1988e+02    3.7572e+02 ;    C26 - C25    - H17   
   716    717    739      1    1.1988e+02    3.7572e+02 ;    C27 - C28    - H20   
   717    716    738      1    1.1988e+02    3.7572e+02 ;    C28 - C27    - H19   
   718    719    741      1    1.1988e+02    3.7572e+02 ;    C29 - C30    - H22   
   719    718    740      1    1.1988e+02    3.7572e+02 ;    C30 - C29    - H21   
   742    743    744      1    1.2178e+02    5.2492e+02 ;     S1 - C1     - C2    
   742    743    776      1    1.2178e+02    5.2492e+02 ;     S1 - C1     - C30   
   743    742    777      1    9.5770e+01    5.7840e+02 ;     C1 - S1     - H1    
   743    744    745      1    1.2002e+02    5.3279e+02 ;     C1 - C2     - C3    
   743    744    778      1    1.1988e+02    3.7572e+02 ;     C1 - C2     - H2    
   743    776    775      1    1.2002e+02    5.3279e+02 ;     C1 - C30    - C29   
   743    776    798      1    1.1988e+02    3.7572e+02 ;     C1 - C30    - H22   
   744    743    776      1    1.2002e+02    5.3279e+02 ;     C2 - C1     - C30   
   744    745    746      1    1.2002e+02    5.3279e+02 ;     C2 - C3     - C4    
   744    745    779      1    1.1988e+02    3.7572e+02 ;     C2 - C3     - H3    
   745    744    778      1    1.1988e+02    3.7572e+02 ;     C3 - C2     - H2    
   745    746    747      1    1.2006e+02    5.2794e+02 ;     C3 - C4     - S2    
   745    746    775      1    1.2002e+02    5.3279e+02 ;     C3 - C4     - C29   
   746    745    779      1    1.1988e+02    3.7572e+02 ;     C4 - C3     - H3    
   746    747    748      1    9.8920e+01    8.0274e+02 ;     C4 - S2     - C5    
   746    775    776      1    1.2002e+02    5.3279e+02 ;     C4 - C29    - C30   
   746    775    797      1    1.1988e+02    3.7572e+02 ;     C4 - C29    - H21   
   747    746    775      1    1.2006e+02    5.2794e+02 ;     S2 - C4     - C29   
   747    748    749      1    1.2006e+02    5.2794e+02 ;     S2 - C5     - C6    
   747    748    774      1    1.2006e+02    5.2794e+02 ;     S2 - C5     - C28   
   748    749    750      1    1.2002e+02    5.3279e+02 ;     C5 - C6     - C7    
   748    749    780      1    1.1988e+02    3.7572e+02 ;     C5 - C6     - H4    
   748    774    773      1    1.2002e+02    5.3279e+02 ;     C5 - C28    - C27   
   748    774    796      1    1.1988e+02    3.7572e+02 ;     C5 - C28    - H20   
   749    748    774      1    1.2002e+02    5.3279e+02 ;     C6 - C5     - C28   
   749    750    751      1    1.2002e+02    5.3279e+02 ;     C6 - C7     - C8    
   749    750    781      1    1.1988e+02    3.7572e+02 ;     C6 - C7     - H5    
   750    749    780      1    1.1988e+02    3.7572e+02 ;     C7 - C6     - H4    
   750    751    752      1    1.2006e+02    5.2794e+02 ;     C7 - C8     - S3    
   750    751    773      1    1.2002e+02    5.3279e+02 ;     C7 - C8     - C27   
   751    750    781      1    1.1988e+02    3.7572e+02 ;     C8 - C7     - H5    
   751    752    753      1    9.8920e+01    8.0274e+02 ;     C8 - S3     - C9    
   751    773    774      1    1.2002e+02    5.3279e+02 ;     C8 - C27    - C28   
   751    773    795      1    1.1988e+02    3.7572e+02 ;     C8 - C27    - H19   
   752    751    773      1    1.2006e+02    5.2794e+02 ;     S3 - C8     - C27   
   752    753    754      1    1.2006e+02    5.2794e+02 ;     S3 - C9     - C10   
   752    753    772      1    1.2006e+02    5.2794e+02 ;     S3 - C9     - C26   
   753    754    755      1    1.2002e+02    5.3279e+02 ;     C9 - C10    - C11   
   753    754    782      1    1.1988e+02    3.7572e+02 ;     C9 - C10    - H6    
   753    772    771      1    1.2002e+02    5.3279e+02 ;     C9 - C26    - C25   
   753    772    794      1    1.1988e+02    3.7572e+02 ;     C9 - C26    - H18   
   754    753    772      1    1.2002e+02    5.3279e+02 ;    C10 - C9     - C26   
   754    755    756      1    1.2002e+02    5.3279e+02 ;    C10 - C11    - C12   
   754    755    783      1    1.1988e+02    3.7572e+02 ;    C10 - C11    - H7    
   755    754    782      1    1.1988e+02    3.7572e+02 ;    C11 - C10    - H6    
   755    756    757      1    1.2006e+02    5.2794e+02 ;    C11 - C12    - S4    
   755    756    771      1    1.2002e+02    5.3279e+02 ;    C11 - C12    - C25   
   756    755    783      1    1.1988e+02    3.7572e+02 ;    C12 - C11    - H7    
   756    757    758      1    9.8920e+01    8.0274e+02 ;    C12 - S4     - C13   
   756    771    772      1    1.2002e+02    5.3279e+02 ;    C12 - C25    - C26   
   756    771    793      1    1.1988e+02    3.7572e+02 ;    C12 - C25    - H17   
   757    756    771      1    1.2006e+02    5.2794e+02 ;     S4 - C12    - C25   
   757    758    759      1    1.2006e+02    5.2794e+02 ;     S4 - C13    - C14   
   757    758    770      1    1.2006e+02    5.2794e+02 ;     S4 - C13    - C24   
   758    759    760      1    1.2002e+02    5.3279e+02 ;    C13 - C14    - C15   
   758    759    784      1    1.1988e+02    3.7572e+02 ;    C13 - C14    - H8    
   758    770    769      1    1.2002e+02    5.3279e+02 ;    C13 - C24    - C23   
   758    770    792      1    1.1988e+02    3.7572e+02 ;    C13 - C24    - H16   
   759    758    770      1    1.2002e+02    5.3279e+02 ;    C14 - C13    - C24   
   759    760    761      1    1.2002e+02    5.3279e+02 ;    C14 - C15    - C16   
   759    760    785      1    1.1988e+02    3.7572e+02 ;    C14 - C15    - H9    
   760    759    784      1    1.1988e+02    3.7572e+02 ;    C15 - C14    - H8    
   760    761    762      1    1.2006e+02    5.2794e+02 ;    C15 - C16    - S5    
   760    761    769      1    1.2002e+02    5.3279e+02 ;    C15 - C16    - C23   
   761    760    785      1    1.1988e+02    3.7572e+02 ;    C16 - C15    - H9    
   761    762    763      1    9.8920e+01    8.0274e+02 ;    C16 - S5     - C17   
   761    769    770      1    1.2002e+02    5.3279e+02 ;    C16 - C23    - C24   
   761    769    791      1    1.1988e+02    3.7572e+02 ;    C16 - C23    - H15   
   762    761    769      1    1.2006e+02    5.2794e+02 ;     S5 - C16    - C23   
   762    763    764      1    1.2006e+02    5.2794e+02 ;     S5 - C17    - C18   
   762    763    768      1    1.2006e+02    5.2794e+02 ;     S5 - C17    - C22   
   763    764    765      1    1.2002e+02    5.3279e+02 ;    C17 - C18    - C19   
   763    764    786      1    1.1988e+02    3.7572e+02 ;    C17 - C18    - H10   
   763    768    767      1    1.2002e+02    5.3279e+02 ;    C17 - C22    - C21   
   763    768    790      1    1.1988e+02    3.7572e+02 ;    C17 - C22    - H14   
   764    763    768      1    1.2002e+02    5.3279e+02 ;    C18 - C17    - C22   
   764    765    766      1    1.2002e+02    5.3279e+02 ;    C18 - C19    - C20   
   764    765    787      1    1.1988e+02    3.7572e+02 ;    C18 - C19    - H11   
   765    764    786      1    1.1988e+02    3.7572e+02 ;    C19 - C18    - H10   
   765    766    767      1    1.2002e+02    5.3279e+02 ;    C19 - C20    - C21   
   765    766    788      1    1.1988e+02    3.7572e+02 ;    C19 - C20    - H12   
   766    765    787      1    1.1988e+02    3.7572e+02 ;    C20 - C19    - H11   
   766    767    768      1    1.2002e+02    5.3279e+02 ;    C20 - C21    - C22   
   766    767    789      1    1.1988e+02    3.7572e+02 ;    C20 - C21    - H13   
   767    766    788      1    1.1988e+02    3.7572e+02 ;    C21 - C20    - H12   
   767    768    790      1    1.1988e+02    3.7572e+02 ;    C21 - C22    - H14   
   768    767    789      1    1.1988e+02    3.7572e+02 ;    C22 - C21    - H13   
   769    770    792      1    1.1988e+02    3.7572e+02 ;    C23 - C24    - H16   
   770    769    791      1    1.1988e+02    3.7572e+02 ;    C24 - C23    - H15   
   771    772    794      1    1.1988e+02    3.7572e+02 ;    C25 - C26    - H18   
   772    771    793      1    1.1988e+02    3.7572e+02 ;    C26 - C25    - H17   
   773    774    796      1    1.1988e+02    3.7572e+02 ;    C27 - C28    - H20   
   774    773    795      1    1.1988e+02    3.7572e+02 ;    C28 - C27    - H19   
   775    776    798      1    1.1988e+02    3.7572e+02 ;    C29 - C30    - H22   
   776    775    797      1    1.1988e+02    3.7572e+02 ;    C30 - C29    - H21   
   799    800    801      1    1.2178e+02    5.2492e+02 ;     S1 - C1     - C2    
   799    800    833      1    1.2178e+02    5.2492e+02 ;     S1 - C1     - C30   
   800    799    834      1    9.5770e+01    5.7840e+02 ;     C1 - S1     - H1    
   800    801    802      1    1.2002e+02    5.3279e+02 ;     C1 - C2     - C3    
   800    801    835      1    1.1988e+02    3.7572e+02 ;     C1 - C2     - H2    
   800    833    832      1    1.2002e+02    5.3279e+02 ;     C1 - C30    - C29   
   800    833    855      1    1.1988e+02    3.7572e+02 ;     C1 - C30    - H22   
   801    800    833      1    1.2002e+02    5.3279e+02 ;     C2 - C1     - C30   
   801    802    803      1    1.2002e+02    5.3279e+02 ;     C2 - C3     - C4    
   801    802    836      1    1.1988e+02    3.7572e+02 ;     C2 - C3     - H3    
   802    801    835      1    1.1988e+02    3.7572e+02 ;     C3 - C2     - H2    
   802    803    804      1    1.2006e+02    5.2794e+02 ;     C3 - C4     - S2    
   802    803    832      1    1.2002e+02    5.3279e+02 ;     C3 - C4     - C29   
   803    802    836      1    1.1988e+02    3.7572e+02 ;     C4 - C3     - H3    
   803    804    805      1    9.8920e+01    8.0274e+02 ;     C4 - S2     - C5    
   803    832    833      1    1.2002e+02    5.3279e+02 ;     C4 - C29    - C30   
   803    832    854      1    1.1988e+02    3.7572e+02 ;     C4 - C29    - H21   
   804    803    832      1    1.2006e+02    5.2794e+02 ;     S2 - C4     - C29   
   804    805    806      1    1.2006e+02    5.2794e+02 ;     S2 - C5     - C6    
   804    805    831      1    1.2006e+02    5.2794e+02 ;     S2 - C5     - C28   
   805    806    807      1    1.2002e+02    5.3279e+02 ;     C5 - C6     - C7    
   805    806    837      1    1.1988e+02    3.7572e+02 ;     C5 - C6     - H4    
   805    831    830      1    1.2002e+02    5.3279e+02 ;     C5 - C28    - C27   
   805    831    853      1    1.1988e+02    3.7572e+02 ;     C5 - C28    - H20   
   806    805    831      1    1.2002e+02    5.3279e+02 ;     C6 - C5     - C28   
   806    807    808      1    1.2002e+02    5.3279e+02 ;     C6 - C7     - C8    
   806    807    838      1    1.1988e+02    3.7572e+02 ;     C6 - C7     - H5    
   807    806    837      1    1.1988e+02    3.7572e+02 ;     C7 - C6     - H4    
   807    808    809      1    1.2006e+02    5.2794e+02 ;     C7 - C8     - S3    
   807    808    830      1    1.2002e+02    5.3279e+02 ;     C7 - C8     - C27   
   808    807    838      1    1.1988e+02    3.7572e+02 ;     C8 - C7     - H5    
   808    809    810      1    9.8920e+01    8.0274e+02 ;     C8 - S3     - C9    
   808    830    831      1    1.2002e+02    5.3279e+02 ;     C8 - C27    - C28   
   808    830    852      1    1.1988e+02    3.7572e+02 ;     C8 - C27    - H19   
   809    808    830      1    1.2006e+02    5.2794e+02 ;     S3 - C8     - C27   
   809    810    811      1    1.2006e+02    5.2794e+02 ;     S3 - C9     - C10   
   809    810    829      1    1.2006e+02    5.2794e+02 ;     S3 - C9     - C26   
   810    811    812      1    1.2002e+02    5.3279e+02 ;     C9 - C10    - C11   
   810    811    839      1    1.1988e+02    3.7572e+02 ;     C9 - C10    - H6    
   810    829    828      1    1.2002e+02    5.3279e+02 ;     C9 - C26    - C25   
   810    829    851      1    1.1988e+02    3.7572e+02 ;     C9 - C26    - H18   
   811    810    829      1    1.2002e+02    5.3279e+02 ;    C10 - C9     - C26   
   811    812    813      1    1.2002e+02    5.3279e+02 ;    C10 - C11    - C12   
   811    812    840      1    1.1988e+02    3.7572e+02 ;    C10 - C11    - H7    
   812    811    839      1    1.1988e+02    3.7572e+02 ;    C11 - C10    - H6    
   812    813    814      1    1.2006e+02    5.2794e+02 ;    C11 - C12    - S4    
   812    813    828      1    1.2002e+02    5.3279e+02 ;    C11 - C12    - C25   
   813    812    840      1    1.1988e+02    3.7572e+02 ;    C12 - C11    - H7    
   813    814    815      1    9.8920e+01    8.0274e+02 ;    C12 - S4     - C13   
   813    828    829      1    1.2002e+02    5.3279e+02 ;    C12 - C25    - C26   
   813    828    850      1    1.1988e+02    3.7572e+02 ;    C12 - C25    - H17   
   814    813    828      1    1.2006e+02    5.2794e+02 ;     S4 - C12    - C25   
   814    815    816      1    1.2006e+02    5.2794e+02 ;     S4 - C13    - C14   
   814    815    827      1    1.2006e+02    5.2794e+02 ;     S4 - C13    - C24   
   815    816    817      1    1.2002e+02    5.3279e+02 ;    C13 - C14    - C15   
   815    816    841      1    1.1988e+02    3.7572e+02 ;    C13 - C14    - H8    
   815    827    826      1    1.2002e+02    5.3279e+02 ;    C13 - C24    - C23   
   815    827    849      1    1.1988e+02    3.7572e+02 ;    C13 - C24    - H16   
   816    815    827      1    1.2002e+02    5.3279e+02 ;    C14 - C13    - C24   
   816    817    818      1    1.2002e+02    5.3279e+02 ;    C14 - C15    - C16   
   816    817    842      1    1.1988e+02    3.7572e+02 ;    C14 - C15    - H9    
   817    816    841      1    1.1988e+02    3.7572e+02 ;    C15 - C14    - H8    
   817    818    819      1    1.2006e+02    5.2794e+02 ;    C15 - C16    - S5    
   817    818    826      1    1.2002e+02    5.3279e+02 ;    C15 - C16    - C23   
   818    817    842      1    1.1988e+02    3.7572e+02 ;    C16 - C15    - H9    
   818    819    820      1    9.8920e+01    8.0274e+02 ;    C16 - S5     - C17   
   818    826    827      1    1.2002e+02    5.3279e+02 ;    C16 - C23    - C24   
   818    826    848      1    1.1988e+02    3.7572e+02 ;    C16 - C23    - H15   
   819    818    826      1    1.2006e+02    5.2794e+02 ;     S5 - C16    - C23   
   819    820    821      1    1.2006e+02    5.2794e+02 ;     S5 - C17    - C18   
   819    820    825      1    1.2006e+02    5.2794e+02 ;     S5 - C17    - C22   
   820    821    822      1    1.2002e+02    5.3279e+02 ;    C17 - C18    - C19   
   820    821    843      1    1.1988e+02    3.7572e+02 ;    C17 - C18    - H10   
   820    825    824      1    1.2002e+02    5.3279e+02 ;    C17 - C22    - C21   
   820    825    847      1    1.1988e+02    3.7572e+02 ;    C17 - C22    - H14   
   821    820    825      1    1.2002e+02    5.3279e+02 ;    C18 - C17    - C22   
   821    822    823      1    1.2002e+02    5.3279e+02 ;    C18 - C19    - C20   
   821    822    844      1    1.1988e+02    3.7572e+02 ;    C18 - C19    - H11   
   822    821    843      1    1.1988e+02    3.7572e+02 ;    C19 - C18    - H10   
   822    823    824      1    1.2002e+02    5.3279e+02 ;    C19 - C20    - C21   
   822    823    845      1    1.1988e+02    3.7572e+02 ;    C19 - C20    - H12   
   823    822    844      1    1.1988e+02    3.7572e+02 ;    C20 - C19    - H11   
   823    824    825      1    1.2002e+02    5.3279e+02 ;    C20 - C21    - C22   
   823    824    846      1    1.1988e+02    3.7572e+02 ;    C20 - C21    - H13   
   824    823    845      1    1.1988e+02    3.7572e+02 ;    C21 - C20    - H12   
   824    825    847      1    1.1988e+02    3.7572e+02 ;    C21 - C22    - H14   
   825    824    846      1    1.1988e+02    3.7572e+02 ;    C22 - C21    - H13   
   826    827    849      1    1.1988e+02    3.7572e+02 ;    C23 - C24    - H16   
   827    826    848      1    1.1988e+02    3.7572e+02 ;    C24 - C23    - H15   
   828    829    851      1    1.1988e+02    3.7572e+02 ;    C25 - C26    - H18   
   829    828    850      1    1.1988e+02    3.7572e+02 ;    C26 - C25    - H17   
   830    831    853      1    1.1988e+02    3.7572e+02 ;    C27 - C28    - H20   
   831    830    852      1    1.1988e+02    3.7572e+02 ;    C28 - C27    - H19   
   832    833    855      1    1.1988e+02    3.7572e+02 ;    C29 - C30    - H22   
   833    832    854      1    1.1988e+02    3.7572e+02 ;    C30 - C29    - H21   
   856    857    858      1    1.2178e+02    5.2492e+02 ;     S1 - C1     - C2    
   856    857    890      1    1.2178e+02    5.2492e+02 ;     S1 - C1     - C30   
   857    856    891      1    9.5770e+01    5.7840e+02 ;     C1 - S1     - H1    
   857    858    859      1    1.2002e+02    5.3279e+02 ;     C1 - C2     - C3    
   857    858    892      1    1.1988e+02    3.7572e+02 ;     C1 - C2     - H2    
   857    890    889      1    1.2002e+02    5.3279e+02 ;     C1 - C30    - C29   
   857    890    912      1    1.1988e+02    3.7572e+02 ;     C1 - C30    - H22   
   858    857    890      1    1.2002e+02    5.3279e+02 ;     C2 - C1     - C30   
   858    859    860      1    1.2002e+02    5.3279e+02 ;     C2 - C3     - C4    
   858    859    893      1    1.1988e+02    3.7572e+02 ;     C2 - C3     - H3    
   859    858    892      1    1.1988e+02    3.7572e+02 ;     C3 - C2     - H2    
   859    860    861      1    1.2006e+02    5.2794e+02 ;     C3 - C4     - S2    
   859    860    889      1    1.2002e+02    5.3279e+02 ;     C3 - C4     - C29   
   860    859    893      1    1.1988e+02    3.7572e+02 ;     C4 - C3     - H3    
   860    861    862      1    9.8920e+01    8.0274e+02 ;     C4 - S2     - C5    
   860    889    890      1    1.2002e+02    5.3279e+02 ;     C4 - C29    - C30   
   860    889    911      1    1.1988e+02    3.7572e+02 ;     C4 - C29    - H21   
   861    860    889      1    1.2006e+02    5.2794e+02 ;     S2 - C4     - C29   
   861    862    863      1    1.2006e+02    5.2794e+02 ;     S2 - C5     - C6    
   861    862    888      1    1.2006e+02    5.2794e+02 ;     S2 - C5     - C28   
   862    863    864      1    1.2002e+02    5.3279e+02 ;     C5 - C6     - C7    
   862    863    894      1    1.1988e+02    3.7572e+02 ;     C5 - C6     - H4    
   862    888    887      1    1.2002e+02    5.3279e+02 ;     C5 - C28    - C27   
   862    888    910      1    1.1988e+02    3.7572e+02 ;     C5 - C28    - H20   
   863    862    888      1    1.2002e+02    5.3279e+02 ;     C6 - C5     - C28   
   863    864    865      1    1.2002e+02    5.3279e+02 ;     C6 - C7     - C8    
   863    864    895      1    1.1988e+02    3.7572e+02 ;     C6 - C7     - H5    
   864    863    894      1    1.1988e+02    3.7572e+02 ;     C7 - C6     - H4    
   864    865    866      1    1.2006e+02    5.2794e+02 ;     C7 - C8     - S3    
   864    865    887      1    1.2002e+02    5.3279e+02 ;     C7 - C8     - C27   
   865    864    895      1    1.1988e+02    3.7572e+02 ;     C8 - C7     - H5    
   865    866    867      1    9.8920e+01    8.0274e+02 ;     C8 - S3     - C9    
   865    887    888      1    1.2002e+02    5.3279e+02 ;     C8 - C27    - C28   
   865    887    909      1    1.1988e+02    3.7572e+02 ;     C8 - C27    - H19   
   866    865    887      1    1.2006e+02    5.2794e+02 ;     S3 - C8     - C27   
   866    867    868      1    1.2006e+02    5.2794e+02 ;     S3 - C9     - C10   
   866    867    886      1    1.2006e+02    5.2794e+02 ;     S3 - C9     - C26   
   867    868    869      1    1.2002e+02    5.3279e+02 ;     C9 - C10    - C11   
   867    868    896      1    1.1988e+02    3.7572e+02 ;     C9 - C10    - H6    
   867    886    885      1    1.2002e+02    5.3279e+02 ;     C9 - C26    - C25   
   867    886    908      1    1.1988e+02    3.7572e+02 ;     C9 - C26    - H18   
   868    867    886      1    1.2002e+02    5.3279e+02 ;    C10 - C9     - C26   
   868    869    870      1    1.2002e+02    5.3279e+02 ;    C10 - C11    - C12   
   868    869    897      1    1.1988e+02    3.7572e+02 ;    C10 - C11    - H7    
   869    868    896      1    1.1988e+02    3.7572e+02 ;    C11 - C10    - H6    
   869    870    871      1    1.2006e+02    5.2794e+02 ;    C11 - C12    - S4    
   869    870    885      1    1.2002e+02    5.3279e+02 ;    C11 - C12    - C25   
   870    869    897      1    1.1988e+02    3.7572e+02 ;    C12 - C11    - H7    
   870    871    872      1    9.8920e+01    8.0274e+02 ;    C12 - S4     - C13   
   870    885    886      1    1.2002e+02    5.3279e+02 ;    C12 - C25    - C26   
   870    885    907      1    1.1988e+02    3.7572e+02 ;    C12 - C25    - H17   
   871    870    885      1    1.2006e+02    5.2794e+02 ;     S4 - C12    - C25   
   871    872    873      1    1.2006e+02    5.2794e+02 ;     S4 - C13    - C14   
   871    872    884      1    1.2006e+02    5.2794e+02 ;     S4 - C13    - C24   
   872    873    874      1    1.2002e+02    5.3279e+02 ;    C13 - C14    - C15   
   872    873    898      1    1.1988e+02    3.7572e+02 ;    C13 - C14    - H8    
   872    884    883      1    1.2002e+02    5.3279e+02 ;    C13 - C24    - C23   
   872    884    906      1    1.1988e+02    3.7572e+02 ;    C13 - C24    - H16   
   873    872    884      1    1.2002e+02    5.3279e+02 ;    C14 - C13    - C24   
   873    874    875      1    1.2002e+02    5.3279e+02 ;    C14 - C15    - C16   
   873    874    899      1    1.1988e+02    3.7572e+02 ;    C14 - C15    - H9    
   874    873    898      1    1.1988e+02    3.7572e+02 ;    C15 - C14    - H8    
   874    875    876      1    1.2006e+02    5.2794e+02 ;    C15 - C16    - S5    
   874    875    883      1    1.2002e+02    5.3279e+02 ;    C15 - C16    - C23   
   875    874    899      1    1.1988e+02    3.7572e+02 ;    C16 - C15    - H9    
   875    876    877      1    9.8920e+01    8.0274e+02 ;    C16 - S5     - C17   
   875    883    884      1    1.2002e+02    5.3279e+02 ;    C16 - C23    - C24   
   875    883    905      1    1.1988e+02    3.7572e+02 ;    C16 - C23    - H15   
   876    875    883      1    1.2006e+02    5.2794e+02 ;     S5 - C16    - C23   
   876    877    878      1    1.2006e+02    5.2794e+02 ;     S5 - C17    - C18   
   876    877    882      1    1.2006e+02    5.2794e+02 ;     S5 - C17    - C22   
   877    878    879      1    1.2002e+02    5.3279e+02 ;    C17 - C18    - C19   
   877    878    900      1    1.1988e+02    3.7572e+02 ;    C17 - C18    - H10   
   877    882    881      1    1.2002e+02    5.3279e+02 ;    C17 - C22    - C21   
   877    882    904      1    1.1988e+02    3.7572e+02 ;    C17 - C22    - H14   
   878    877    882      1    1.2002e+02    5.3279e+02 ;    C18 - C17    - C22   
   878    879    880      1    1.2002e+02    5.3279e+02 ;    C18 - C19    - C20   
   878    879    901      1    1.1988e+02    3.7572e+02 ;    C18 - C19    - H11   
   879    878    900      1    1.1988e+02    3.7572e+02 ;    C19 - C18    - H10   
   879    880    881      1    1.2002e+02    5.3279e+02 ;    C19 - C20    - C21   
   879    880    902      1    1.1988e+02    3.7572e+02 ;    C19 - C20    - H12   
   880    879    901      1    1.1988e+02    3.7572e+02 ;    C20 - C19    - H11   
   880    881    882      1    1.2002e+02    5.3279e+02 ;    C20 - C21    - C22   
   880    881    903      1    1.1988e+02    3.7572e+02 ;    C20 - C21    - H13   
   881    880    902      1    1.1988e+02    3.7572e+02 ;    C21 - C20    - H12   
   881    882    904      1    1.1988e+02    3.7572e+02 ;    C21 - C22    - H14   
   882    881    903      1    1.1988e+02    3.7572e+02 ;    C22 - C21    - H13   
   883    884    906      1    1.1988e+02    3.7572e+02 ;    C23 - C24    - H16   
   884    883    905      1    1.1988e+02    3.7572e+02 ;    C24 - C23    - H15   
   885    886    908      1    1.1988e+02    3.7572e+02 ;    C25 - C26    - H18   
   886    885    907      1    1.1988e+02    3.7572e+02 ;    C26 - C25    - H17   
   887    888    910      1    1.1988e+02    3.7572e+02 ;    C27 - C28    - H20   
   888    887    909      1    1.1988e+02    3.7572e+02 ;    C28 - C27    - H19   
   889    890    912      1    1.1988e+02    3.7572e+02 ;    C29 - C30    - H22   
   890    889    911      1    1.1988e+02    3.7572e+02 ;    C30 - C29    - H21   
   913    914    915      1    1.2178e+02    5.2492e+02 ;     S1 - C1     - C2    
   913    914    947      1    1.2178e+02    5.2492e+02 ;     S1 - C1     - C30   
   914    913    948      1    9.5770e+01    5.7840e+02 ;     C1 - S1     - H1    
   914    915    916      1    1.2002e+02    5.3279e+02 ;     C1 - C2     - C3    
   914    915    949      1    1.1988e+02    3.7572e+02 ;     C1 - C2     - H2    
   914    947    946      1    1.2002e+02    5.3279e+02 ;     C1 - C30    - C29   
   914    947    969      1    1.1988e+02    3.7572e+02 ;     C1 - C30    - H22   
   915    914    947      1    1.2002e+02    5.3279e+02 ;     C2 - C1     - C30   
   915    916    917      1    1.2002e+02    5.3279e+02 ;     C2 - C3     - C4    
   915    916    950      1    1.1988e+02    3.7572e+02 ;     C2 - C3     - H3    
   916    915    949      1    1.1988e+02    3.7572e+02 ;     C3 - C2     - H2    
   916    917    918      1    1.2006e+02    5.2794e+02 ;     C3 - C4     - S2    
   916    917    946      1    1.2002e+02    5.3279e+02 ;     C3 - C4     - C29   
   917    916    950      1    1.1988e+02    3.7572e+02 ;     C4 - C3     - H3    
   917    918    919      1    9.8920e+01    8.0274e+02 ;     C4 - S2     - C5    
   917    946    947      1    1.2002e+02    5.3279e+02 ;     C4 - C29    - C30   
   917    946    968      1    1.1988e+02    3.7572e+02 ;     C4 - C29    - H21   
   918    917    946      1    1.2006e+02    5.2794e+02 ;     S2 - C4     - C29   
   918    919    920      1    1.2006e+02    5.2794e+02 ;     S2 - C5     - C6    
   918    919    945      1    1.2006e+02    5.2794e+02 ;     S2 - C5     - C28   
   919    920    921      1    1.2002e+02    5.3279e+02 ;     C5 - C6     - C7    
   919    920    951      1    1.1988e+02    3.7572e+02 ;     C5 - C6     - H4    
   919    945    944      1    1.2002e+02    5.3279e+02 ;     C5 - C28    - C27   
   919    945    967      1    1.1988e+02    3.7572e+02 ;     C5 - C28    - H20   
   920    919    945      1    1.2002e+02    5.3279e+02 ;     C6 - C5     - C28   
   920    921    922      1    1.2002e+02    5.3279e+02 ;     C6 - C7     - C8    
   920    921    952      1    1.1988e+02    3.7572e+02 ;     C6 - C7     - H5    
   921    920    951      1    1.1988e+02    3.7572e+02 ;     C7 - C6     - H4    
   921    922    923      1    1.2006e+02    5.2794e+02 ;     C7 - C8     - S3    
   921    922    944      1    1.2002e+02    5.3279e+02 ;     C7 - C8     - C27   
   922    921    952      1    1.1988e+02    3.7572e+02 ;     C8 - C7     - H5    
   922    923    924      1    9.8920e+01    8.0274e+02 ;     C8 - S3     - C9    
   922    944    945      1    1.2002e+02    5.3279e+02 ;     C8 - C27    - C28   
   922    944    966      1    1.1988e+02    3.7572e+02 ;     C8 - C27    - H19   
   923    922    944      1    1.2006e+02    5.2794e+02 ;     S3 - C8     - C27   
   923    924    925      1    1.2006e+02    5.2794e+02 ;     S3 - C9     - C10   
   923    924    943      1    1.2006e+02    5.2794e+02 ;     S3 - C9     - C26   
   924    925    926      1    1.2002e+02    5.3279e+02 ;     C9 - C10    - C11   
   924    925    953      1    1.1988e+02    3.7572e+02 ;     C9 - C10    - H6    
   924    943    942      1    1.2002e+02    5.3279e+02 ;     C9 - C26    - C25   
   924    943    965      1    1.1988e+02    3.7572e+02 ;     C9 - C26    - H18   
   925    924    943      1    1.2002e+02    5.3279e+02 ;    C10 - C9     - C26   
   925    926    927      1    1.2002e+02    5.3279e+02 ;    C10 - C11    - C12   
   925    926    954      1    1.1988e+02    3.7572e+02 ;    C10 - C11    - H7    
   926    925    953      1    1.1988e+02    3.7572e+02 ;    C11 - C10    - H6    
   926    927    928      1    1.2006e+02    5.2794e+02 ;    C11 - C12    - S4    
   926    927    942      1    1.2002e+02    5.3279e+02 ;    C11 - C12    - C25   
   927    926    954      1    1.1988e+02    3.7572e+02 ;    C12 - C11    - H7    
   927    928    929      1    9.8920e+01    8.0274e+02 ;    C12 - S4     - C13   
   927    942    943      1    1.2002e+02    5.3279e+02 ;    C12 - C25    - C26   
   927    942    964      1    1.1988e+02    3.7572e+02 ;    C12 - C25    - H17   
   928    927    942      1    1.2006e+02    5.2794e+02 ;     S4 - C12    - C25   
   928    929    930      1    1.2006e+02    5.2794e+02 ;     S4 - C13    - C14   
   928    929    941      1    1.2006e+02    5.2794e+02 ;     S4 - C13    - C24   
   929    930    931      1    1.2002e+02    5.3279e+02 ;    C13 - C14    - C15   
   929    930    955      1    1.1988e+02    3.7572e+02 ;    C13 - C14    - H8    
   929    941    940      1    1.2002e+02    5.3279e+02 ;    C13 - C24    - C23   
   929    941    963      1    1.1988e+02    3.7572e+02 ;    C13 - C24    - H16   
   930    929    941      1    1.2002e+02    5.3279e+02 ;    C14 - C13    - C24   
   930    931    932      1    1.2002e+02    5.3279e+02 ;    C14 - C15    - C16   
   930    931    956      1    1.1988e+02    3.7572e+02 ;    C14 - C15    - H9    
   931    930    955      1    1.1988e+02    3.7572e+02 ;    C15 - C14    - H8    
   931    932    933      1    1.2006e+02    5.2794e+02 ;    C15 - C16    - S5    
   931    932    940      1    1.2002e+02    5.3279e+02 ;    C15 - C16    - C23   
   932    931    956      1    1.1988e+02    3.7572e+02 ;    C16 - C15    - H9    
   932    933    934      1    9.8920e+01    8.0274e+02 ;    C16 - S5     - C17   
   932    940    941      1    1.2002e+02    5.3279e+02 ;    C16 - C23    - C24   
   932    940    962      1    1.1988e+02    3.7572e+02 ;    C16 - C23    - H15   
   933    932    940      1    1.2006e+02    5.2794e+02 ;     S5 - C16    - C23   
   933    934    935      1    1.2006e+02    5.2794e+02 ;     S5 - C17    - C18   
   933    934    939      1    1.2006e+02    5.2794e+02 ;     S5 - C17    - C22   
   934    935    936      1    1.2002e+02    5.3279e+02 ;    C17 - C18    - C19   
   934    935    957      1    1.1988e+02    3.7572e+02 ;    C17 - C18    - H10   
   934    939    938      1    1.2002e+02    5.3279e+02 ;    C17 - C22    - C21   
   934    939    961      1    1.1988e+02    3.7572e+02 ;    C17 - C22    - H14   
   935    934    939      1    1.2002e+02    5.3279e+02 ;    C18 - C17    - C22   
   935    936    937      1    1.2002e+02    5.3279e+02 ;    C18 - C19    - C20   
   935    936    958      1    1.1988e+02    3.7572e+02 ;    C18 - C19    - H11   
   936    935    957      1    1.1988e+02    3.7572e+02 ;    C19 - C18    - H10   
   936    937    938      1    1.2002e+02    5.3279e+02 ;    C19 - C20    - C21   
   936    937    959      1    1.1988e+02    3.7572e+02 ;    C19 - C20    - H12   
   937    936    958      1    1.1988e+02    3.7572e+02 ;    C20 - C19    - H11   
   937    938    939      1    1.2002e+02    5.3279e+02 ;    C20 - C21    - C22   
   937    938    960      1    1.1988e+02    3.7572e+02 ;    C20 - C21    - H13   
   938    937    959      1    1.1988e+02    3.7572e+02 ;    C21 - C20    - H12   
   938    939    961      1    1.1988e+02    3.7572e+02 ;    C21 - C22    - H14   
   939    938    960      1    1.1988e+02    3.7572e+02 ;    C22 - C21    - H13   
   940    941    963      1    1.1988e+02    3.7572e+02 ;    C23 - C24    - H16   
   941    940    962      1    1.1988e+02    3.7572e+02 ;    C24 - C23    - H15   
   942    943    965      1    1.1988e+02    3.7572e+02 ;    C25 - C26    - H18   
   943    942    964      1    1.1988e+02    3.7572e+02 ;    C26 - C25    - H17   
   944    945    967      1    1.1988e+02    3.7572e+02 ;    C27 - C28    - H20   
   945    944    966      1    1.1988e+02    3.7572e+02 ;    C28 - C27    - H19   
   946    947    969      1    1.1988e+02    3.7572e+02 ;    C29 - C30    - H22   
   947    946    968      1    1.1988e+02    3.7572e+02 ;    C30 - C29    - H21   
   970    971    972      1    1.2178e+02    5.2492e+02 ;     S1 - C1     - C2    
   970    971   1004      1    1.2178e+02    5.2492e+02 ;     S1 - C1     - C30   
   971    970   1005      1    9.5770e+01    5.7840e+02 ;     C1 - S1     - H1    
   971    972    973      1    1.2002e+02    5.3279e+02 ;     C1 - C2     - C3    
   971    972   1006      1    1.1988e+02    3.7572e+02 ;     C1 - C2     - H2    
   971   1004   1003      1    1.2002e+02    5.3279e+02 ;     C1 - C30    - C29   
   971   1004   1026      1    1.1988e+02    3.7572e+02 ;     C1 - C30    - H22   
   972    971   1004      1    1.2002e+02    5.3279e+02 ;     C2 - C1     - C30   
   972    973    974      1    1.2002e+02    5.3279e+02 ;     C2 - C3     - C4    
   972    973   1007      1    1.1988e+02    3.7572e+02 ;     C2 - C3     - H3    
   973    972   1006      1    1.1988e+02    3.7572e+02 ;     C3 - C2     - H2    
   973    974    975      1    1.2006e+02    5.2794e+02 ;     C3 - C4     - S2    
   973    974   1003      1    1.2002e+02    5.3279e+02 ;     C3 - C4     - C29   
   974    973   1007      1    1.1988e+02    3.7572e+02 ;     C4 - C3     - H3    
   974    975    976      1    9.8920e+01    8.0274e+02 ;     C4 - S2     - C5    
   974   1003   1004      1    1.2002e+02    5.3279e+02 ;     C4 - C29    - C30   
   974   1003   1025      1    1.1988e+02    3.7572e+02 ;     C4 - C29    - H21   
   975    974   1003      1    1.2006e+02    5.2794e+02 ;     S2 - C4     - C29   
   975    976    977      1    1.2006e+02    5.2794e+02 ;     S2 - C5     - C6    
   975    976   1002      1    1.2006e+02    5.2794e+02 ;     S2 - C5     - C28   
   976    977    978      1    1.2002e+02    5.3279e+02 ;     C5 - C6     - C7    
   976    977   1008      1    1.1988e+02    3.7572e+02 ;     C5 - C6     - H4    
   976   1002   1001      1    1.2002e+02    5.3279e+02 ;     C5 - C28    - C27   
   976   1002   1024      1    1.1988e+02    3.7572e+02 ;     C5 - C28    - H20   
   977    976   1002      1    1.2002e+02    5.3279e+02 ;     C6 - C5     - C28   
   977    978    979      1    1.2002e+02    5.3279e+02 ;     C6 - C7     - C8    
   977    978   1009      1    1.1988e+02    3.7572e+02 ;     C6 - C7     - H5    
   978    977   1008      1    1.1988e+02    3.7572e+02 ;     C7 - C6     - H4    
   978    979    980      1    1.2006e+02    5.2794e+02 ;     C7 - C8     - S3    
   978    979   1001      1    1.2002e+02    5.3279e+02 ;     C7 - C8     - C27   
   979    978   1009      1    1.1988e+02    3.7572e+02 ;     C8 - C7     - H5    
   979    980    981      1    9.8920e+01    8.0274e+02 ;     C8 - S3     - C9    
   979   1001   1002      1    1.2002e+02    5.3279e+02 ;     C8 - C27    - C28   
   979   1001   1023      1    1.1988e+02    3.7572e+02 ;     C8 - C27    - H19   
   980    979   1001      1    1.2006e+02    5.2794e+02 ;     S3 - C8     - C27   
   980    981    982      1    1.2006e+02    5.2794e+02 ;     S3 - C9     - C10   
   980    981   1000      1    1.2006e+02    5.2794e+02 ;     S3 - C9     - C26   
   981    982    983      1    1.2002e+02    5.3279e+02 ;     C9 - C10    - C11   
   981    982   1010      1    1.1988e+02    3.7572e+02 ;     C9 - C10    - H6    
   981   1000    999      1    1.2002e+02    5.3279e+02 ;     C9 - C26    - C25   
   981   1000   1022      1    1.1988e+02    3.7572e+02 ;     C9 - C26    - H18   
   982    981   1000      1    1.2002e+02    5.3279e+02 ;    C10 - C9     - C26   
   982    983    984      1    1.2002e+02    5.3279e+02 ;    C10 - C11    - C12   
   982    983   1011      1    1.1988e+02    3.7572e+02 ;    C10 - C11    - H7    
   983    982   1010      1    1.1988e+02    3.7572e+02 ;    C11 - C10    - H6    
   983    984    985      1    1.2006e+02    5.2794e+02 ;    C11 - C12    - S4    
   983    984    999      1    1.2002e+02    5.3279e+02 ;    C11 - C12    - C25   
   984    983   1011      1    1.1988e+02    3.7572e+02 ;    C12 - C11    - H7    
   984    985    986      1    9.8920e+01    8.0274e+02 ;    C12 - S4     - C13   
   984    999   1000      1    1.2002e+02    5.3279e+02 ;    C12 - C25    - C26   
   984    999   1021      1    1.1988e+02    3.7572e+02 ;    C12 - C25    - H17   
   985    984    999      1    1.2006e+02    5.2794e+02 ;     S4 - C12    - C25   
   985    986    987      1    1.2006e+02    5.2794e+02 ;     S4 - C13    - C14   
   985    986    998      1    1.2006e+02    5.2794e+02 ;     S4 - C13    - C24   
   986    987    988      1    1.2002e+02    5.3279e+02 ;    C13 - C14    - C15   
   986    987   1012      1    1.1988e+02    3.7572e+02 ;    C13 - C14    - H8    
   986    998    997      1    1.2002e+02    5.3279e+02 ;    C13 - C24    - C23   
   986    998   1020      1    1.1988e+02    3.7572e+02 ;    C13 - C24    - H16   
   987    986    998      1    1.2002e+02    5.3279e+02 ;    C14 - C13    - C24   
   987    988    989      1    1.2002e+02    5.3279e+02 ;    C14 - C15    - C16   
   987    988   1013      1    1.1988e+02    3.7572e+02 ;    C14 - C15    - H9    
   988    987   1012      1    1.1988e+02    3.7572e+02 ;    C15 - C14    - H8    
   988    989    990      1    1.2006e+02    5.2794e+02 ;    C15 - C16    - S5    
   988    989    997      1    1.2002e+02    5.3279e+02 ;    C15 - C16    - C23   
   989    988   1013      1    1.1988e+02    3.7572e+02 ;    C16 - C15    - H9    
   989    990    991      1    9.8920e+01    8.0274e+02 ;    C16 - S5     - C17   
   989    997    998      1    1.2002e+02    5.3279e+02 ;    C16 - C23    - C24   
   989    997   1019      1    1.1988e+02    3.7572e+02 ;    C16 - C23    - H15   
   990    989    997      1    1.2006e+02    5.2794e+02 ;     S5 - C16    - C23   
   990    991    992      1    1.2006e+02    5.2794e+02 ;     S5 - C17    - C18   
   990    991    996      1    1.2006e+02    5.2794e+02 ;     S5 - C17    - C22   
   991    992    993      1    1.2002e+02    5.3279e+02 ;    C17 - C18    - C19   
   991    992   1014      1    1.1988e+02    3.7572e+02 ;    C17 - C18    - H10   
   991    996    995      1    1.2002e+02    5.3279e+02 ;    C17 - C22    - C21   
   991    996   1018      1    1.1988e+02    3.7572e+02 ;    C17 - C22    - H14   
   992    991    996      1    1.2002e+02    5.3279e+02 ;    C18 - C17    - C22   
   992    993    994      1    1.2002e+02    5.3279e+02 ;    C18 - C19    - C20   
   992    993   1015      1    1.1988e+02    3.7572e+02 ;    C18 - C19    - H11   
   993    992   1014      1    1.1988e+02    3.7572e+02 ;    C19 - C18    - H10   
   993    994    995      1    1.2002e+02    5.3279e+02 ;    C19 - C20    - C21   
   993    994   1016      1    1.1988e+02    3.7572e+02 ;    C19 - C20    - H12   
   994    993   1015      1    1.1988e+02    3.7572e+02 ;    C20 - C19    - H11   
   994    995    996      1    1.2002e+02    5.3279e+02 ;    C20 - C21    - C22   
   994    995   1017      1    1.1988e+02    3.7572e+02 ;    C20 - C21    - H13   
   995    994   1016      1    1.1988e+02    3.7572e+02 ;    C21 - C20    - H12   
   995    996   1018      1    1.1988e+02    3.7572e+02 ;    C21 - C22    - H14   
   996    995   1017      1    1.1988e+02    3.7572e+02 ;    C22 - C21    - H13   
   997    998   1020      1    1.1988e+02    3.7572e+02 ;    C23 - C24    - H16   
   998    997   1019      1    1.1988e+02    3.7572e+02 ;    C24 - C23    - H15   
   999   1000   1022      1    1.1988e+02    3.7572e+02 ;    C25 - C26    - H18   
  1000    999   1021      1    1.1988e+02    3.7572e+02 ;    C26 - C25    - H17   
  1001   1002   1024      1    1.1988e+02    3.7572e+02 ;    C27 - C28    - H20   
  1002   1001   1023      1    1.1988e+02    3.7572e+02 ;    C28 - C27    - H19   
  1003   1004   1026      1    1.1988e+02    3.7572e+02 ;    C29 - C30    - H22   
  1004   1003   1025      1    1.1988e+02    3.7572e+02 ;    C30 - C29    - H21   
  1027   1028   1029      1    1.2178e+02    5.2492e+02 ;     S1 - C1     - C2    
  1027   1028   1061      1    1.2178e+02    5.2492e+02 ;     S1 - C1     - C30   
  1028   1027   1062      1    9.5770e+01    5.7840e+02 ;     C1 - S1     - H1    
  1028   1029   1030      1    1.2002e+02    5.3279e+02 ;     C1 - C2     - C3    
  1028   1029   1063      1    1.1988e+02    3.7572e+02 ;     C1 - C2     - H2    
  1028   1061   1060      1    1.2002e+02    5.3279e+02 ;     C1 - C30    - C29   
  1028   1061   1083      1    1.1988e+02    3.7572e+02 ;     C1 - C30    - H22   
  1029   1028   1061      1    1.2002e+02    5.3279e+02 ;     C2 - C1     - C30   
  1029   1030   1031      1    1.2002e+02    5.3279e+02 ;     C2 - C3     - C4    
  1029   1030   1064      1    1.1988e+02    3.7572e+02 ;     C2 - C3     - H3    
  1030   1029   1063      1    1.1988e+02    3.7572e+02 ;     C3 - C2     - H2    
  1030   1031   1032      1    1.2006e+02    5.2794e+02 ;     C3 - C4     - S2    
  1030   1031   1060      1    1.2002e+02    5.3279e+02 ;     C3 - C4     - C29   
  1031   1030   1064      1    1.1988e+02    3.7572e+02 ;     C4 - C3     - H3    
  1031   1032   1033      1    9.8920e+01    8.0274e+02 ;     C4 - S2     - C5    
  1031   1060   1061      1    1.2002e+02    5.3279e+02 ;     C4 - C29    - C30   
  1031   1060   1082      1    1.1988e+02    3.7572e+02 ;     C4 - C29    - H21   
  1032   1031   1060      1    1.2006e+02    5.2794e+02 ;     S2 - C4     - C29   
  1032   1033   1034      1    1.2006e+02    5.2794e+02 ;     S2 - C5     - C6    
  1032   1033   1059      1    1.2006e+02    5.2794e+02 ;     S2 - C5     - C28   
  1033   1034   1035      1    1.2002e+02    5.3279e+02 ;     C5 - C6     - C7    
  1033   1034   1065      1    1.1988e+02    3.7572e+02 ;     C5 - C6     - H4    
  1033   1059   1058      1    1.2002e+02    5.3279e+02 ;     C5 - C28    - C27   
  1033   1059   1081      1    1.1988e+02    3.7572e+02 ;     C5 - C28    - H20   
  1034   1033   1059      1    1.2002e+02    5.3279e+02 ;     C6 - C5     - C28   
  1034   1035   1036      1    1.2002e+02    5.3279e+02 ;     C6 - C7     - C8    
  1034   1035   1066      1    1.1988e+02    3.7572e+02 ;     C6 - C7     - H5    
  1035   1034   1065      1    1.1988e+02    3.7572e+02 ;     C7 - C6     - H4    
  1035   1036   1037      1    1.2006e+02    5.2794e+02 ;     C7 - C8     - S3    
  1035   1036   1058      1    1.2002e+02    5.3279e+02 ;     C7 - C8     - C27   
  1036   1035   1066      1    1.1988e+02    3.7572e+02 ;     C8 - C7     - H5    
  1036   1037   1038      1    9.8920e+01    8.0274e+02 ;     C8 - S3     - C9    
  1036   1058   1059      1    1.2002e+02    5.3279e+02 ;     C8 - C27    - C28   
  1036   1058   1080      1    1.1988e+02    3.7572e+02 ;     C8 - C27    - H19   
  1037   1036   1058      1    1.2006e+02    5.2794e+02 ;     S3 - C8     - C27   
  1037   1038   1039      1    1.2006e+02    5.2794e+02 ;     S3 - C9     - C10   
  1037   1038   1057      1    1.2006e+02    5.2794e+02 ;     S3 - C9     - C26   
  1038   1039   1040      1    1.2002e+02    5.3279e+02 ;     C9 - C10    - C11   
  1038   1039   1067      1    1.1988e+02    3.7572e+02 ;     C9 - C10    - H6    
  1038   1057   1056      1    1.2002e+02    5.3279e+02 ;     C9 - C26    - C25   
  1038   1057   1079      1    1.1988e+02    3.7572e+02 ;     C9 - C26    - H18   
  1039   1038   1057      1    1.2002e+02    5.3279e+02 ;    C10 - C9     - C26   
  1039   1040   1041      1    1.2002e+02    5.3279e+02 ;    C10 - C11    - C12   
  1039   1040   1068      1    1.1988e+02    3.7572e+02 ;    C10 - C11    - H7    
  1040   1039   1067      1    1.1988e+02    3.7572e+02 ;    C11 - C10    - H6    
  1040   1041   1042      1    1.2006e+02    5.2794e+02 ;    C11 - C12    - S4    
  1040   1041   1056      1    1.2002e+02    5.3279e+02 ;    C11 - C12    - C25   
  1041   1040   1068      1    1.1988e+02    3.7572e+02 ;    C12 - C11    - H7    
  1041   1042   1043      1    9.8920e+01    8.0274e+02 ;    C12 - S4     - C13   
  1041   1056   1057      1    1.2002e+02    5.3279e+02 ;    C12 - C25    - C26   
  1041   1056   1078      1    1.1988e+02    3.7572e+02 ;    C12 - C25    - H17   
  1042   1041   1056      1    1.2006e+02    5.2794e+02 ;     S4 - C12    - C25   
  1042   1043   1044      1    1.2006e+02    5.2794e+02 ;     S4 - C13    - C14   
  1042   1043   1055      1    1.2006e+02    5.2794e+02 ;     S4 - C13    - C24   
  1043   1044   1045      1    1.2002e+02    5.3279e+02 ;    C13 - C14    - C15   
  1043   1044   1069      1    1.1988e+02    3.7572e+02 ;    C13 - C14    - H8    
  1043   1055   1054      1    1.2002e+02    5.3279e+02 ;    C13 - C24    - C23   
  1043   1055   1077      1    1.1988e+02    3.7572e+02 ;    C13 - C24    - H16   
  1044   1043   1055      1    1.2002e+02    5.3279e+02 ;    C14 - C13    - C24   
  1044   1045   1046      1    1.2002e+02    5.3279e+02 ;    C14 - C15    - C16   
  1044   1045   1070      1    1.1988e+02    3.7572e+02 ;    C14 - C15    - H9    
  1045   1044   1069      1    1.1988e+02    3.7572e+02 ;    C15 - C14    - H8    
  1045   1046   1047      1    1.2006e+02    5.2794e+02 ;    C15 - C16    - S5    
  1045   1046   1054      1    1.2002e+02    5.3279e+02 ;    C15 - C16    - C23   
  1046   1045   1070      1    1.1988e+02    3.7572e+02 ;    C16 - C15    - H9    
  1046   1047   1048      1    9.8920e+01    8.0274e+02 ;    C16 - S5     - C17   
  1046   1054   1055      1    1.2002e+02    5.3279e+02 ;    C16 - C23    - C24   
  1046   1054   1076      1    1.1988e+02    3.7572e+02 ;    C16 - C23    - H15   
  1047   1046   1054      1    1.2006e+02    5.2794e+02 ;     S5 - C16    - C23   
  1047   1048   1049      1    1.2006e+02    5.2794e+02 ;     S5 - C17    - C18   
  1047   1048   1053      1    1.2006e+02    5.2794e+02 ;     S5 - C17    - C22   
  1048   1049   1050      1    1.2002e+02    5.3279e+02 ;    C17 - C18    - C19   
  1048   1049   1071      1    1.1988e+02    3.7572e+02 ;    C17 - C18    - H10   
  1048   1053   1052      1    1.2002e+02    5.3279e+02 ;    C17 - C22    - C21   
  1048   1053   1075      1    1.1988e+02    3.7572e+02 ;    C17 - C22    - H14   
  1049   1048   1053      1    1.2002e+02    5.3279e+02 ;    C18 - C17    - C22   
  1049   1050   1051      1    1.2002e+02    5.3279e+02 ;    C18 - C19    - C20   
  1049   1050   1072      1    1.1988e+02    3.7572e+02 ;    C18 - C19    - H11   
  1050   1049   1071      1    1.1988e+02    3.7572e+02 ;    C19 - C18    - H10   
  1050   1051   1052      1    1.2002e+02    5.3279e+02 ;    C19 - C20    - C21   
  1050   1051   1073      1    1.1988e+02    3.7572e+02 ;    C19 - C20    - H12   
  1051   1050   1072      1    1.1988e+02    3.7572e+02 ;    C20 - C19    - H11   
  1051   1052   1053      1    1.2002e+02    5.3279e+02 ;    C20 - C21    - C22   
  1051   1052   1074      1    1.1988e+02    3.7572e+02 ;    C20 - C21    - H13   
  1052   1051   1073      1    1.1988e+02    3.7572e+02 ;    C21 - C20    - H12   
  1052   1053   1075      1    1.1988e+02    3.7572e+02 ;    C21 - C22    - H14   
  1053   1052   1074      1    1.1988e+02    3.7572e+02 ;    C22 - C21    - H13   
  1054   1055   1077      1    1.1988e+02    3.7572e+02 ;    C23 - C24    - H16   
  1055   1054   1076      1    1.1988e+02    3.7572e+02 ;    C24 - C23    - H15   
  1056   1057   1079      1    1.1988e+02    3.7572e+02 ;    C25 - C26    - H18   
  1057   1056   1078      1    1.1988e+02    3.7572e+02 ;    C26 - C25    - H17   
  1058   1059   1081      1    1.1988e+02    3.7572e+02 ;    C27 - C28    - H20   
  1059   1058   1080      1    1.1988e+02    3.7572e+02 ;    C28 - C27    - H19   
  1060   1061   1083      1    1.1988e+02    3.7572e+02 ;    C29 - C30    - H22   
  1061   1060   1082      1    1.1988e+02    3.7572e+02 ;    C30 - C29    - H21   
  1084   1085   1086      1    1.2178e+02    5.2492e+02 ;     S1 - C1     - C2    
  1084   1085   1118      1    1.2178e+02    5.2492e+02 ;     S1 - C1     - C30   
  1085   1084   1119      1    9.5770e+01    5.7840e+02 ;     C1 - S1     - H1    
  1085   1086   1087      1    1.2002e+02    5.3279e+02 ;     C1 - C2     - C3    
  1085   1086   1120      1    1.1988e+02    3.7572e+02 ;     C1 - C2     - H2    
  1085   1118   1117      1    1.2002e+02    5.3279e+02 ;     C1 - C30    - C29   
  1085   1118   1140      1    1.1988e+02    3.7572e+02 ;     C1 - C30    - H22   
  1086   1085   1118      1    1.2002e+02    5.3279e+02 ;     C2 - C1     - C30   
  1086   1087   1088      1    1.2002e+02    5.3279e+02 ;     C2 - C3     - C4    
  1086   1087   1121      1    1.1988e+02    3.7572e+02 ;     C2 - C3     - H3    
  1087   1086   1120      1    1.1988e+02    3.7572e+02 ;     C3 - C2     - H2    
  1087   1088   1089      1    1.2006e+02    5.2794e+02 ;     C3 - C4     - S2    
  1087   1088   1117      1    1.2002e+02    5.3279e+02 ;     C3 - C4     - C29   
  1088   1087   1121      1    1.1988e+02    3.7572e+02 ;     C4 - C3     - H3    
  1088   1089   1090      1    9.8920e+01    8.0274e+02 ;     C4 - S2     - C5    
  1088   1117   1118      1    1.2002e+02    5.3279e+02 ;     C4 - C29    - C30   
  1088   1117   1139      1    1.1988e+02    3.7572e+02 ;     C4 - C29    - H21   
  1089   1088   1117      1    1.2006e+02    5.2794e+02 ;     S2 - C4     - C29   
  1089   1090   1091      1    1.2006e+02    5.2794e+02 ;     S2 - C5     - C6    
  1089   1090   1116      1    1.2006e+02    5.2794e+02 ;     S2 - C5     - C28   
  1090   1091   1092      1    1.2002e+02    5.3279e+02 ;     C5 - C6     - C7    
  1090   1091   1122      1    1.1988e+02    3.7572e+02 ;     C5 - C6     - H4    
  1090   1116   1115      1    1.2002e+02    5.3279e+02 ;     C5 - C28    - C27   
  1090   1116   1138      1    1.1988e+02    3.7572e+02 ;     C5 - C28    - H20   
  1091   1090   1116      1    1.2002e+02    5.3279e+02 ;     C6 - C5     - C28   
  1091   1092   1093      1    1.2002e+02    5.3279e+02 ;     C6 - C7     - C8    
  1091   1092   1123      1    1.1988e+02    3.7572e+02 ;     C6 - C7     - H5    
  1092   1091   1122      1    1.1988e+02    3.7572e+02 ;     C7 - C6     - H4    
  1092   1093   1094      1    1.2006e+02    5.2794e+02 ;     C7 - C8     - S3    
  1092   1093   1115      1    1.2002e+02    5.3279e+02 ;     C7 - C8     - C27   
  1093   1092   1123      1    1.1988e+02    3.7572e+02 ;     C8 - C7     - H5    
  1093   1094   1095      1    9.8920e+01    8.0274e+02 ;     C8 - S3     - C9    
  1093   1115   1116      1    1.2002e+02    5.3279e+02 ;     C8 - C27    - C28   
  1093   1115   1137      1    1.1988e+02    3.7572e+02 ;     C8 - C27    - H19   
  1094   1093   1115      1    1.2006e+02    5.2794e+02 ;     S3 - C8     - C27   
  1094   1095   1096      1    1.2006e+02    5.2794e+02 ;     S3 - C9     - C10   
  1094   1095   1114      1    1.2006e+02    5.2794e+02 ;     S3 - C9     - C26   
  1095   1096   1097      1    1.2002e+02    5.3279e+02 ;     C9 - C10    - C11   
  1095   1096   1124      1    1.1988e+02    3.7572e+02 ;     C9 - C10    - H6    
  1095   1114   1113      1    1.2002e+02    5.3279e+02 ;     C9 - C26    - C25   
  1095   1114   1136      1    1.1988e+02    3.7572e+02 ;     C9 - C26    - H18   
  1096   1095   1114      1    1.2002e+02    5.3279e+02 ;    C10 - C9     - C26   
  1096   1097   1098      1    1.2002e+02    5.3279e+02 ;    C10 - C11    - C12   
  1096   1097   1125      1    1.1988e+02    3.7572e+02 ;    C10 - C11    - H7    
  1097   1096   1124      1    1.1988e+02    3.7572e+02 ;    C11 - C10    - H6    
  1097   1098   1099      1    1.2006e+02    5.2794e+02 ;    C11 - C12    - S4    
  1097   1098   1113      1    1.2002e+02    5.3279e+02 ;    C11 - C12    - C25   
  1098   1097   1125      1    1.1988e+02    3.7572e+02 ;    C12 - C11    - H7    
  1098   1099   1100      1    9.8920e+01    8.0274e+02 ;    C12 - S4     - C13   
  1098   1113   1114      1    1.2002e+02    5.3279e+02 ;    C12 - C25    - C26   
  1098   1113   1135      1    1.1988e+02    3.7572e+02 ;    C12 - C25    - H17   
  1099   1098   1113      1    1.2006e+02    5.2794e+02 ;     S4 - C12    - C25   
  1099   1100   1101      1    1.2006e+02    5.2794e+02 ;     S4 - C13    - C14   
  1099   1100   1112      1    1.2006e+02    5.2794e+02 ;     S4 - C13    - C24   
  1100   1101   1102      1    1.2002e+02    5.3279e+02 ;    C13 - C14    - C15   
  1100   1101   1126      1    1.1988e+02    3.7572e+02 ;    C13 - C14    - H8    
  1100   1112   1111      1    1.2002e+02    5.3279e+02 ;    C13 - C24    - C23   
  1100   1112   1134      1    1.1988e+02    3.7572e+02 ;    C13 - C24    - H16   
  1101   1100   1112      1    1.2002e+02    5.3279e+02 ;    C14 - C13    - C24   
  1101   1102   1103      1    1.2002e+02    5.3279e+02 ;    C14 - C15    - C16   
  1101   1102   1127      1    1.1988e+02    3.7572e+02 ;    C14 - C15    - H9    
  1102   1101   1126      1    1.1988e+02    3.7572e+02 ;    C15 - C14    - H8    
  1102   1103   1104      1    1.2006e+02    5.2794e+02 ;    C15 - C16    - S5    
  1102   1103   1111      1    1.2002e+02    5.3279e+02 ;    C15 - C16    - C23   
  1103   1102   1127      1    1.1988e+02    3.7572e+02 ;    C16 - C15    - H9    
  1103   1104   1105      1    9.8920e+01    8.0274e+02 ;    C16 - S5     - C17   
  1103   1111   1112      1    1.2002e+02    5.3279e+02 ;    C16 - C23    - C24   
  1103   1111   1133      1    1.1988e+02    3.7572e+02 ;    C16 - C23    - H15   
  1104   1103   1111      1    1.2006e+02    5.2794e+02 ;     S5 - C16    - C23   
  1104   1105   1106      1    1.2006e+02    5.2794e+02 ;     S5 - C17    - C18   
  1104   1105   1110      1    1.2006e+02    5.2794e+02 ;     S5 - C17    - C22   
  1105   1106   1107      1    1.2002e+02    5.3279e+02 ;    C17 - C18    - C19   
  1105   1106   1128      1    1.1988e+02    3.7572e+02 ;    C17 - C18    - H10   
  1105   1110   1109      1    1.2002e+02    5.3279e+02 ;    C17 - C22    - C21   
  1105   1110   1132      1    1.1988e+02    3.7572e+02 ;    C17 - C22    - H14   
  1106   1105   1110      1    1.2002e+02    5.3279e+02 ;    C18 - C17    - C22   
  1106   1107   1108      1    1.2002e+02    5.3279e+02 ;    C18 - C19    - C20   
  1106   1107   1129      1    1.1988e+02    3.7572e+02 ;    C18 - C19    - H11   
  1107   1106   1128      1    1.1988e+02    3.7572e+02 ;    C19 - C18    - H10   
  1107   1108   1109      1    1.2002e+02    5.3279e+02 ;    C19 - C20    - C21   
  1107   1108   1130      1    1.1988e+02    3.7572e+02 ;    C19 - C20    - H12   
  1108   1107   1129      1    1.1988e+02    3.7572e+02 ;    C20 - C19    - H11   
  1108   1109   1110      1    1.2002e+02    5.3279e+02 ;    C20 - C21    - C22   
  1108   1109   1131      1    1.1988e+02    3.7572e+02 ;    C20 - C21    - H13   
  1109   1108   1130      1    1.1988e+02    3.7572e+02 ;    C21 - C20    - H12   
  1109   1110   1132      1    1.1988e+02    3.7572e+02 ;    C21 - C22    - H14   
  1110   1109   1131      1    1.1988e+02    3.7572e+02 ;    C22 - C21    - H13   
  1111   1112   1134      1    1.1988e+02    3.7572e+02 ;    C23 - C24    - H16   
  1112   1111   1133      1    1.1988e+02    3.7572e+02 ;    C24 - C23    - H15   
  1113   1114   1136      1    1.1988e+02    3.7572e+02 ;    C25 - C26    - H18   
  1114   1113   1135      1    1.1988e+02    3.7572e+02 ;    C26 - C25    - H17   
  1115   1116   1138      1    1.1988e+02    3.7572e+02 ;    C27 - C28    - H20   
  1116   1115   1137      1    1.1988e+02    3.7572e+02 ;    C28 - C27    - H19   
  1117   1118   1140      1    1.1988e+02    3.7572e+02 ;    C29 - C30    - H22   
  1118   1117   1139      1    1.1988e+02    3.7572e+02 ;    C30 - C29    - H21   

[ dihedrals ] ; propers
; for gromacs 4.5 or higher, using funct 9
;    i      j      k      l   func   phase     kd      pn
     1      2      3      4      9   180.00  15.16700   2 ;     S1-    C1-    C2-    C3
     1      2      3     37      9   180.00  15.16700   2 ;     S1-    C1-    C2-    H2
     1      2     35     34      9   180.00  15.16700   2 ;     S1-    C1-   C30-   C29
     1      2     35     57      9   180.00  15.16700   2 ;     S1-    C1-   C30-   H22
     2      3      4      5      9   180.00  15.16700   2 ;     C1-    C2-    C3-    C4
     2      3      4     38      9   180.00  15.16700   2 ;     C1-    C2-    C3-    H3
     2     35     34      5      9   180.00  15.16700   2 ;     C1-   C30-   C29-    C4
     2     35     34     56      9   180.00  15.16700   2 ;     C1-   C30-   C29-   H21
     3      2     35     34      9   180.00  15.16700   2 ;     C2-    C1-   C30-   C29
     3      2     35     57      9   180.00  15.16700   2 ;     C2-    C1-   C30-   H22
     3      4      5      6      9   180.00  15.16700   2 ;     C2-    C3-    C4-    S2
     3      4      5     34      9   180.00  15.16700   2 ;     C2-    C3-    C4-   C29
     4      3      2     35      9   180.00  15.16700   2 ;     C3-    C2-    C1-   C30
     4      5      6      7      9   180.00   1.67360   2 ;     C3-    C4-    S2-    C5
     4      5     34     35      9   180.00  15.16700   2 ;     C3-    C4-   C29-   C30
     4      5     34     56      9   180.00  15.16700   2 ;     C3-    C4-   C29-   H21
     5      4      3     37      9   180.00  15.16700   2 ;     C4-    C3-    C2-    H2
     5      6      7      8      9   180.00   1.67360   2 ;     C4-    S2-    C5-    C6
     5      6      7     33      9   180.00   1.67360   2 ;     C4-    S2-    C5-   C28
     5     34     35     57      9   180.00  15.16700   2 ;     C4-   C29-   C30-   H22
     6      5      4     38      9   180.00  15.16700   2 ;     S2-    C4-    C3-    H3
     6      5     34     35      9   180.00  15.16700   2 ;     S2-    C4-   C29-   C30
     6      5     34     56      9   180.00  15.16700   2 ;     S2-    C4-   C29-   H21
     6      7      8      9      9   180.00  15.16700   2 ;     S2-    C5-    C6-    C7
     6      7      8     39      9   180.00  15.16700   2 ;     S2-    C5-    C6-    H4
     6      7     33     32      9   180.00  15.16700   2 ;     S2-    C5-   C28-   C27
     6      7     33     55      9   180.00  15.16700   2 ;     S2-    C5-   C28-   H20
     7      6      5     34      9   180.00   1.67360   2 ;     C5-    S2-    C4-   C29
     7      8      9     10      9   180.00  15.16700   2 ;     C5-    C6-    C7-    C8
     7      8      9     40      9   180.00  15.16700   2 ;     C5-    C6-    C7-    H5
     7     33     32     10      9   180.00  15.16700   2 ;     C5-   C28-   C27-    C8
     7     33     32     54      9   180.00  15.16700   2 ;     C5-   C28-   C27-   H19
     8      7     33     32      9   180.00  15.16700   2 ;     C6-    C5-   C28-   C27
     8      7     33     55      9   180.00  15.16700   2 ;     C6-    C5-   C28-   H20
     8      9     10     11      9   180.00  15.16700   2 ;     C6-    C7-    C8-    S3
     8      9     10     32      9   180.00  15.16700   2 ;     C6-    C7-    C8-   C27
     9      8      7     33      9   180.00  15.16700   2 ;     C7-    C6-    C5-   C28
     9     10     11     12      9   180.00   1.67360   2 ;     C7-    C8-    S3-    C9
     9     10     32     33      9   180.00  15.16700   2 ;     C7-    C8-   C27-   C28
     9     10     32     54      9   180.00  15.16700   2 ;     C7-    C8-   C27-   H19
    10      9      8     39      9   180.00  15.16700   2 ;     C8-    C7-    C6-    H4
    10     11     12     13      9   180.00   1.67360   2 ;     C8-    S3-    C9-   C10
    10     11     12     31      9   180.00   1.67360   2 ;     C8-    S3-    C9-   C26
    10     32     33     55      9   180.00  15.16700   2 ;     C8-   C27-   C28-   H20
    11     10      9     40      9   180.00  15.16700   2 ;     S3-    C8-    C7-    H5
    11     10     32     33      9   180.00  15.16700   2 ;     S3-    C8-   C27-   C28
    11     10     32     54      9   180.00  15.16700   2 ;     S3-    C8-   C27-   H19
    11     12     13     14      9   180.00  15.16700   2 ;     S3-    C9-   C10-   C11
    11     12     13     41      9   180.00  15.16700   2 ;     S3-    C9-   C10-    H6
    11     12     31     30      9   180.00  15.16700   2 ;     S3-    C9-   C26-   C25
    11     12     31     53      9   180.00  15.16700   2 ;     S3-    C9-   C26-   H18
    12     11     10     32      9   180.00   1.67360   2 ;     C9-    S3-    C8-   C27
    12     13     14     15      9   180.00  15.16700   2 ;     C9-   C10-   C11-   C12
    12     13     14     42      9   180.00  15.16700   2 ;     C9-   C10-   C11-    H7
    12     31     30     15      9   180.00  15.16700   2 ;     C9-   C26-   C25-   C12
    12     31     30     52      9   180.00  15.16700   2 ;     C9-   C26-   C25-   H17
    13     12     31     30      9   180.00  15.16700   2 ;    C10-    C9-   C26-   C25
    13     12     31     53      9   180.00  15.16700   2 ;    C10-    C9-   C26-   H18
    13     14     15     16      9   180.00  15.16700   2 ;    C10-   C11-   C12-    S4
    13     14     15     30      9   180.00  15.16700   2 ;    C10-   C11-   C12-   C25
    14     13     12     31      9   180.00  15.16700   2 ;    C11-   C10-    C9-   C26
    14     15     16     17      9   180.00   1.67360   2 ;    C11-   C12-    S4-   C13
    14     15     30     31      9   180.00  15.16700   2 ;    C11-   C12-   C25-   C26
    14     15     30     52      9   180.00  15.16700   2 ;    C11-   C12-   C25-   H17
    15     14     13     41      9   180.00  15.16700   2 ;    C12-   C11-   C10-    H6
    15     16     17     18      9   180.00   1.67360   2 ;    C12-    S4-   C13-   C14
    15     16     17     29      9   180.00   1.67360   2 ;    C12-    S4-   C13-   C24
    15     30     31     53      9   180.00  15.16700   2 ;    C12-   C25-   C26-   H18
    16     15     14     42      9   180.00  15.16700   2 ;     S4-   C12-   C11-    H7
    16     15     30     31      9   180.00  15.16700   2 ;     S4-   C12-   C25-   C26
    16     15     30     52      9   180.00  15.16700   2 ;     S4-   C12-   C25-   H17
    16     17     18     19      9   180.00  15.16700   2 ;     S4-   C13-   C14-   C15
    16     17     18     43      9   180.00  15.16700   2 ;     S4-   C13-   C14-    H8
    16     17     29     28      9   180.00  15.16700   2 ;     S4-   C13-   C24-   C23
    16     17     29     51      9   180.00  15.16700   2 ;     S4-   C13-   C24-   H16
    17     16     15     30      9   180.00   1.67360   2 ;    C13-    S4-   C12-   C25
    17     18     19     20      9   180.00  15.16700   2 ;    C13-   C14-   C15-   C16
    17     18     19     44      9   180.00  15.16700   2 ;    C13-   C14-   C15-    H9
    17     29     28     20      9   180.00  15.16700   2 ;    C13-   C24-   C23-   C16
    17     29     28     50      9   180.00  15.16700   2 ;    C13-   C24-   C23-   H15
    18     17     29     28      9   180.00  15.16700   2 ;    C14-   C13-   C24-   C23
    18     17     29     51      9   180.00  15.16700   2 ;    C14-   C13-   C24-   H16
    18     19     20     21      9   180.00  15.16700   2 ;    C14-   C15-   C16-    S5
    18     19     20     28      9   180.00  15.16700   2 ;    C14-   C15-   C16-   C23
    19     18     17     29      9   180.00  15.16700   2 ;    C15-   C14-   C13-   C24
    19     20     21     22      9   180.00   1.67360   2 ;    C15-   C16-    S5-   C17
    19     20     28     29      9   180.00  15.16700   2 ;    C15-   C16-   C23-   C24
    19     20     28     50      9   180.00  15.16700   2 ;    C15-   C16-   C23-   H15
    20     19     18     43      9   180.00  15.16700   2 ;    C16-   C15-   C14-    H8
    20     21     22     23      9   180.00   1.67360   2 ;    C16-    S5-   C17-   C18
    20     21     22     27      9   180.00   1.67360   2 ;    C16-    S5-   C17-   C22
    20     28     29     51      9   180.00  15.16700   2 ;    C16-   C23-   C24-   H16
    21     20     19     44      9   180.00  15.16700   2 ;     S5-   C16-   C15-    H9
    21     20     28     29      9   180.00  15.16700   2 ;     S5-   C16-   C23-   C24
    21     20     28     50      9   180.00  15.16700   2 ;     S5-   C16-   C23-   H15
    21     22     23     24      9   180.00  15.16700   2 ;     S5-   C17-   C18-   C19
    21     22     23     45      9   180.00  15.16700   2 ;     S5-   C17-   C18-   H10
    21     22     27     26      9   180.00  15.16700   2 ;     S5-   C17-   C22-   C21
    21     22     27     49      9   180.00  15.16700   2 ;     S5-   C17-   C22-   H14
    22     21     20     28      9   180.00   1.67360   2 ;    C17-    S5-   C16-   C23
    22     23     24     25      9   180.00  15.16700   2 ;    C17-   C18-   C19-   C20
    22     23     24     46      9   180.00  15.16700   2 ;    C17-   C18-   C19-   H11
    22     27     26     25      9   180.00  15.16700   2 ;    C17-   C22-   C21-   C20
    22     27     26     48      9   180.00  15.16700   2 ;    C17-   C22-   C21-   H13
    23     22     27     26      9   180.00  15.16700   2 ;    C18-   C17-   C22-   C21
    23     22     27     49      9   180.00  15.16700   2 ;    C18-   C17-   C22-   H14
    23     24     25     26      9   180.00  15.16700   2 ;    C18-   C19-   C20-   C21
    23     24     25     47      9   180.00  15.16700   2 ;    C18-   C19-   C20-   H12
    24     23     22     27      9   180.00  15.16700   2 ;    C19-   C18-   C17-   C22
    24     25     26     27      9   180.00  15.16700   2 ;    C19-   C20-   C21-   C22
    24     25     26     48      9   180.00  15.16700   2 ;    C19-   C20-   C21-   H13
    25     24     23     45      9   180.00  15.16700   2 ;    C20-   C19-   C18-   H10
    25     26     27     49      9   180.00  15.16700   2 ;    C20-   C21-   C22-   H14
    26     25     24     46      9   180.00  15.16700   2 ;    C21-   C20-   C19-   H11
    27     22     23     45      9   180.00  15.16700   2 ;    C22-   C17-   C18-   H10
    27     26     25     47      9   180.00  15.16700   2 ;    C22-   C21-   C20-   H12
    28     20     19     44      9   180.00  15.16700   2 ;    C23-   C16-   C15-    H9
    29     17     18     43      9   180.00  15.16700   2 ;    C24-   C13-   C14-    H8
    30     15     14     42      9   180.00  15.16700   2 ;    C25-   C12-   C11-    H7
    31     12     13     41      9   180.00  15.16700   2 ;    C26-    C9-   C10-    H6
    32     10      9     40      9   180.00  15.16700   2 ;    C27-    C8-    C7-    H5
    33      7      8     39      9   180.00  15.16700   2 ;    C28-    C5-    C6-    H4
    34      5      4     38      9   180.00  15.16700   2 ;    C29-    C4-    C3-    H3
    35      2      3     37      9   180.00  15.16700   2 ;    C30-    C1-    C2-    H2
    36      1      2      3      9   180.00   0.48116   2 ;     H1-    S1-    C1-    C2
    36      1      2     35      9   180.00   0.48116   2 ;     H1-    S1-    C1-   C30
    37      3      4     38      9   180.00  15.16700   2 ;     H2-    C2-    C3-    H3
    39      8      9     40      9   180.00  15.16700   2 ;     H4-    C6-    C7-    H5
    41     13     14     42      9   180.00  15.16700   2 ;     H6-   C10-   C11-    H7
    43     18     19     44      9   180.00  15.16700   2 ;     H8-   C14-   C15-    H9
    45     23     24     46      9   180.00  15.16700   2 ;    H10-   C18-   C19-   H11
    46     24     25     47      9   180.00  15.16700   2 ;    H11-   C19-   C20-   H12
    47     25     26     48      9   180.00  15.16700   2 ;    H12-   C20-   C21-   H13
    48     26     27     49      9   180.00  15.16700   2 ;    H13-   C21-   C22-   H14
    50     28     29     51      9   180.00  15.16700   2 ;    H15-   C23-   C24-   H16
    52     30     31     53      9   180.00  15.16700   2 ;    H17-   C25-   C26-   H18
    54     32     33     55      9   180.00  15.16700   2 ;    H19-   C27-   C28-   H20
    56     34     35     57      9   180.00  15.16700   2 ;    H21-   C29-   C30-   H22
    58     59     60     61      9   180.00  15.16700   2 ;     S1-    C1-    C2-    C3
    58     59     60     94      9   180.00  15.16700   2 ;     S1-    C1-    C2-    H2
    58     59     92     91      9   180.00  15.16700   2 ;     S1-    C1-   C30-   C29
    58     59     92    114      9   180.00  15.16700   2 ;     S1-    C1-   C30-   H22
    59     60     61     62      9   180.00  15.16700   2 ;     C1-    C2-    C3-    C4
    59     60     61     95      9   180.00  15.16700   2 ;     C1-    C2-    C3-    H3
    59     92     91     62      9   180.00  15.16700   2 ;     C1-   C30-   C29-    C4
    59     92     91    113      9   180.00  15.16700   2 ;     C1-   C30-   C29-   H21
    60     59     58     93      9   180.00   0.48116   2 ;     C2-    C1-    S1-    H1
    60     59     92     91      9   180.00  15.16700   2 ;     C2-    C1-   C30-   C29
    60     59     92    114      9   180.00  15.16700   2 ;     C2-    C1-   C30-   H22
    60     61     62     63      9   180.00  15.16700   2 ;     C2-    C3-    C4-    S2
    60     61     62     91      9   180.00  15.16700   2 ;     C2-    C3-    C4-   C29
    61     60     59     92      9   180.00  15.16700   2 ;     C3-    C2-    C1-   C30
    61     62     63     64      9   180.00   1.67360   2 ;     C3-    C4-    S2-    C5
    61     62     91     92      9   180.00  15.16700   2 ;     C3-    C4-   C29-   C30
    61     62     91    113      9   180.00  15.16700   2 ;     C3-    C4-   C29-   H21
    62     61     60     94      9   180.00  15.16700   2 ;     C4-    C3-    C2-    H2
    62     63     64     65      9   180.00   1.67360   2 ;     C4-    S2-    C5-    C6
    62     63     64     90      9   180.00   1.67360   2 ;     C4-    S2-    C5-   C28
    62     91     92    114      9   180.00  15.16700   2 ;     C4-   C29-   C30-   H22
    63     62     61     95      9   180.00  15.16700   2 ;     S2-    C4-    C3-    H3
    63     62     91     92      9   180.00  15.16700   2 ;     S2-    C4-   C29-   C30
    63     62     91    113      9   180.00  15.16700   2 ;     S2-    C4-   C29-   H21
    63     64     65     66      9   180.00  15.16700   2 ;     S2-    C5-    C6-    C7
    63     64     65     96      9   180.00  15.16700   2 ;     S2-    C5-    C6-    H4
    63     64     90     89      9   180.00  15.16700   2 ;     S2-    C5-   C28-   C27
    63     64     90    112      9   180.00  15.16700   2 ;     S2-    C5-   C28-   H20
    64     63     62     91      9   180.00   1.67360   2 ;     C5-    S2-    C4-   C29
    64     65     66     67      9   180.00  15.16700   2 ;     C5-    C6-    C7-    C8
    64     65     66     97      9   180.00  15.16700   2 ;     C5-    C6-    C7-    H5
    64     90     89     67      9   180.00  15.16700   2 ;     C5-   C28-   C27-    C8
    64     90     89    111      9   180.00  15.16700   2 ;     C5-   C28-   C27-   H19
    65     64     90     89      9   180.00  15.16700   2 ;     C6-    C5-   C28-   C27
    65     64     90    112      9   180.00  15.16700   2 ;     C6-    C5-   C28-   H20
    65     66     67     68      9   180.00  15.16700   2 ;     C6-    C7-    C8-    S3
    65     66     67     89      9   180.00  15.16700   2 ;     C6-    C7-    C8-   C27
    66     65     64     90      9   180.00  15.16700   2 ;     C7-    C6-    C5-   C28
    66     67     68     69      9   180.00   1.67360   2 ;     C7-    C8-    S3-    C9
    66     67     89     90      9   180.00  15.16700   2 ;     C7-    C8-   C27-   C28
    66     67     89    111      9   180.00  15.16700   2 ;     C7-    C8-   C27-   H19
    67     66     65     96      9   180.00  15.16700   2 ;     C8-    C7-    C6-    H4
    67     68     69     70      9   180.00   1.67360   2 ;     C8-    S3-    C9-   C10
    67     68     69     88      9   180.00   1.67360   2 ;     C8-    S3-    C9-   C26
    67     89     90    112      9   180.00  15.16700   2 ;     C8-   C27-   C28-   H20
    68     67     66     97      9   180.00  15.16700   2 ;     S3-    C8-    C7-    H5
    68     67     89     90      9   180.00  15.16700   2 ;     S3-    C8-   C27-   C28
    68     67     89    111      9   180.00  15.16700   2 ;     S3-    C8-   C27-   H19
    68     69     70     71      9   180.00  15.16700   2 ;     S3-    C9-   C10-   C11
    68     69     70     98      9   180.00  15.16700   2 ;     S3-    C9-   C10-    H6
    68     69     88     87      9   180.00  15.16700   2 ;     S3-    C9-   C26-   C25
    68     69     88    110      9   180.00  15.16700   2 ;     S3-    C9-   C26-   H18
    69     68     67     89      9   180.00   1.67360   2 ;     C9-    S3-    C8-   C27
    69     70     71     72      9   180.00  15.16700   2 ;     C9-   C10-   C11-   C12
    69     70     71     99      9   180.00  15.16700   2 ;     C9-   C10-   C11-    H7
    69     88     87     72      9   180.00  15.16700   2 ;     C9-   C26-   C25-   C12
    69     88     87    109      9   180.00  15.16700   2 ;     C9-   C26-   C25-   H17
    70     69     88     87      9   180.00  15.16700   2 ;    C10-    C9-   C26-   C25
    70     69     88    110      9   180.00  15.16700   2 ;    C10-    C9-   C26-   H18
    70     71     72     73      9   180.00  15.16700   2 ;    C10-   C11-   C12-    S4
    70     71     72     87      9   180.00  15.16700   2 ;    C10-   C11-   C12-   C25
    71     70     69     88      9   180.00  15.16700   2 ;    C11-   C10-    C9-   C26
    71     72     73     74      9   180.00   1.67360   2 ;    C11-   C12-    S4-   C13
    71     72     87     88      9   180.00  15.16700   2 ;    C11-   C12-   C25-   C26
    71     72     87    109      9   180.00  15.16700   2 ;    C11-   C12-   C25-   H17
    72     71     70     98      9   180.00  15.16700   2 ;    C12-   C11-   C10-    H6
    72     73     74     75      9   180.00   1.67360   2 ;    C12-    S4-   C13-   C14
    72     73     74     86      9   180.00   1.67360   2 ;    C12-    S4-   C13-   C24
    72     87     88    110      9   180.00  15.16700   2 ;    C12-   C25-   C26-   H18
    73     72     71     99      9   180.00  15.16700   2 ;     S4-   C12-   C11-    H7
    73     72     87     88      9   180.00  15.16700   2 ;     S4-   C12-   C25-   C26
    73     72     87    109      9   180.00  15.16700   2 ;     S4-   C12-   C25-   H17
    73     74     75     76      9   180.00  15.16700   2 ;     S4-   C13-   C14-   C15
    73     74     75    100      9   180.00  15.16700   2 ;     S4-   C13-   C14-    H8
    73     74     86     85      9   180.00  15.16700   2 ;     S4-   C13-   C24-   C23
    73     74     86    108      9   180.00  15.16700   2 ;     S4-   C13-   C24-   H16
    74     73     72     87      9   180.00   1.67360   2 ;    C13-    S4-   C12-   C25
    74     75     76     77      9   180.00  15.16700   2 ;    C13-   C14-   C15-   C16
    74     75     76    101      9   180.00  15.16700   2 ;    C13-   C14-   C15-    H9
    74     86     85     77      9   180.00  15.16700   2 ;    C13-   C24-   C23-   C16
    74     86     85    107      9   180.00  15.16700   2 ;    C13-   C24-   C23-   H15
    75     74     86     85      9   180.00  15.16700   2 ;    C14-   C13-   C24-   C23
    75     74     86    108      9   180.00  15.16700   2 ;    C14-   C13-   C24-   H16
    75     76     77     78      9   180.00  15.16700   2 ;    C14-   C15-   C16-    S5
    75     76     77     85      9   180.00  15.16700   2 ;    C14-   C15-   C16-   C23
    76     75     74     86      9   180.00  15.16700   2 ;    C15-   C14-   C13-   C24
    76     77     78     79      9   180.00   1.67360   2 ;    C15-   C16-    S5-   C17
    76     77     85     86      9   180.00  15.16700   2 ;    C15-   C16-   C23-   C24
    76     77     85    107      9   180.00  15.16700   2 ;    C15-   C16-   C23-   H15
    77     76     75    100      9   180.00  15.16700   2 ;    C16-   C15-   C14-    H8
    77     78     79     80      9   180.00   1.67360   2 ;    C16-    S5-   C17-   C18
    77     78     79     84      9   180.00   1.67360   2 ;    C16-    S5-   C17-   C22
    77     85     86    108      9   180.00  15.16700   2 ;    C16-   C23-   C24-   H16
    78     77     76    101      9   180.00  15.16700   2 ;     S5-   C16-   C15-    H9
    78     77     85     86      9   180.00  15.16700   2 ;     S5-   C16-   C23-   C24
    78     77     85    107      9   180.00  15.16700   2 ;     S5-   C16-   C23-   H15
    78     79     80     81      9   180.00  15.16700   2 ;     S5-   C17-   C18-   C19
    78     79     80    102      9   180.00  15.16700   2 ;     S5-   C17-   C18-   H10
    78     79     84     83      9   180.00  15.16700   2 ;     S5-   C17-   C22-   C21
    78     79     84    106      9   180.00  15.16700   2 ;     S5-   C17-   C22-   H14
    79     78     77     85      9   180.00   1.67360   2 ;    C17-    S5-   C16-   C23
    79     80     81     82      9   180.00  15.16700   2 ;    C17-   C18-   C19-   C20
    79     80     81    103      9   180.00  15.16700   2 ;    C17-   C18-   C19-   H11
    79     84     83     82      9   180.00  15.16700   2 ;    C17-   C22-   C21-   C20
    79     84     83    105      9   180.00  15.16700   2 ;    C17-   C22-   C21-   H13
    80     79     84     83      9   180.00  15.16700   2 ;    C18-   C17-   C22-   C21
    80     79     84    106      9   180.00  15.16700   2 ;    C18-   C17-   C22-   H14
    80     81     82     83      9   180.00  15.16700   2 ;    C18-   C19-   C20-   C21
    80     81     82    104      9   180.00  15.16700   2 ;    C18-   C19-   C20-   H12
    81     80     79     84      9   180.00  15.16700   2 ;    C19-   C18-   C17-   C22
    81     82     83     84      9   180.00  15.16700   2 ;    C19-   C20-   C21-   C22
    81     82     83    105      9   180.00  15.16700   2 ;    C19-   C20-   C21-   H13
    82     81     80    102      9   180.00  15.16700   2 ;    C20-   C19-   C18-   H10
    82     83     84    106      9   180.00  15.16700   2 ;    C20-   C21-   C22-   H14
    83     82     81    103      9   180.00  15.16700   2 ;    C21-   C20-   C19-   H11
    84     79     80    102      9   180.00  15.16700   2 ;    C22-   C17-   C18-   H10
    84     83     82    104      9   180.00  15.16700   2 ;    C22-   C21-   C20-   H12
    85     77     76    101      9   180.00  15.16700   2 ;    C23-   C16-   C15-    H9
    86     74     75    100      9   180.00  15.16700   2 ;    C24-   C13-   C14-    H8
    87     72     71     99      9   180.00  15.16700   2 ;    C25-   C12-   C11-    H7
    88     69     70     98      9   180.00  15.16700   2 ;    C26-    C9-   C10-    H6
    89     67     66     97      9   180.00  15.16700   2 ;    C27-    C8-    C7-    H5
    90     64     65     96      9   180.00  15.16700   2 ;    C28-    C5-    C6-    H4
    91     62     61     95      9   180.00  15.16700   2 ;    C29-    C4-    C3-    H3
    92     59     58     93      9   180.00   0.48116   2 ;    C30-    C1-    S1-    H1
    92     59     60     94      9   180.00  15.16700   2 ;    C30-    C1-    C2-    H2
    94     60     61     95      9   180.00  15.16700   2 ;     H2-    C2-    C3-    H3
    96     65     66     97      9   180.00  15.16700   2 ;     H4-    C6-    C7-    H5
    98     70     71     99      9   180.00  15.16700   2 ;     H6-   C10-   C11-    H7
   100     75     76    101      9   180.00  15.16700   2 ;     H8-   C14-   C15-    H9
   102     80     81    103      9   180.00  15.16700   2 ;    H10-   C18-   C19-   H11
   103     81     82    104      9   180.00  15.16700   2 ;    H11-   C19-   C20-   H12
   104     82     83    105      9   180.00  15.16700   2 ;    H12-   C20-   C21-   H13
   105     83     84    106      9   180.00  15.16700   2 ;    H13-   C21-   C22-   H14
   107     85     86    108      9   180.00  15.16700   2 ;    H15-   C23-   C24-   H16
   109     87     88    110      9   180.00  15.16700   2 ;    H17-   C25-   C26-   H18
   111     89     90    112      9   180.00  15.16700   2 ;    H19-   C27-   C28-   H20
   113     91     92    114      9   180.00  15.16700   2 ;    H21-   C29-   C30-   H22
   115    116    117    118      9   180.00  15.16700   2 ;     S1-    C1-    C2-    C3
   115    116    117    151      9   180.00  15.16700   2 ;     S1-    C1-    C2-    H2
   115    116    149    148      9   180.00  15.16700   2 ;     S1-    C1-   C30-   C29
   115    116    149    171      9   180.00  15.16700   2 ;     S1-    C1-   C30-   H22
   116    117    118    119      9   180.00  15.16700   2 ;     C1-    C2-    C3-    C4
   116    117    118    152      9   180.00  15.16700   2 ;     C1-    C2-    C3-    H3
   116    149    148    119      9   180.00  15.16700   2 ;     C1-   C30-   C29-    C4
   116    149    148    170      9   180.00  15.16700   2 ;     C1-   C30-   C29-   H21
   117    116    115    150      9   180.00   0.48116   2 ;     C2-    C1-    S1-    H1
   117    116    149    148      9   180.00  15.16700   2 ;     C2-    C1-   C30-   C29
   117    116    149    171      9   180.00  15.16700   2 ;     C2-    C1-   C30-   H22
   117    118    119    120      9   180.00  15.16700   2 ;     C2-    C3-    C4-    S2
   117    118    119    148      9   180.00  15.16700   2 ;     C2-    C3-    C4-   C29
   118    117    116    149      9   180.00  15.16700   2 ;     C3-    C2-    C1-   C30
   118    119    120    121      9   180.00   1.67360   2 ;     C3-    C4-    S2-    C5
   118    119    148    149      9   180.00  15.16700   2 ;     C3-    C4-   C29-   C30
   118    119    148    170      9   180.00  15.16700   2 ;     C3-    C4-   C29-   H21
   119    118    117    151      9   180.00  15.16700   2 ;     C4-    C3-    C2-    H2
   119    120    121    122      9   180.00   1.67360   2 ;     C4-    S2-    C5-    C6
   119    120    121    147      9   180.00   1.67360   2 ;     C4-    S2-    C5-   C28
   119    148    149    171      9   180.00  15.16700   2 ;     C4-   C29-   C30-   H22
   120    119    118    152      9   180.00  15.16700   2 ;     S2-    C4-    C3-    H3
   120    119    148    149      9   180.00  15.16700   2 ;     S2-    C4-   C29-   C30
   120    119    148    170      9   180.00  15.16700   2 ;     S2-    C4-   C29-   H21
   120    121    122    123      9   180.00  15.16700   2 ;     S2-    C5-    C6-    C7
   120    121    122    153      9   180.00  15.16700   2 ;     S2-    C5-    C6-    H4
   120    121    147    146      9   180.00  15.16700   2 ;     S2-    C5-   C28-   C27
   120    121    147    169      9   180.00  15.16700   2 ;     S2-    C5-   C28-   H20
   121    120    119    148      9   180.00   1.67360   2 ;     C5-    S2-    C4-   C29
   121    122    123    124      9   180.00  15.16700   2 ;     C5-    C6-    C7-    C8
   121    122    123    154      9   180.00  15.16700   2 ;     C5-    C6-    C7-    H5
   121    147    146    124      9   180.00  15.16700   2 ;     C5-   C28-   C27-    C8
   121    147    146    168      9   180.00  15.16700   2 ;     C5-   C28-   C27-   H19
   122    121    147    146      9   180.00  15.16700   2 ;     C6-    C5-   C28-   C27
   122    121    147    169      9   180.00  15.16700   2 ;     C6-    C5-   C28-   H20
   122    123    124    125      9   180.00  15.16700   2 ;     C6-    C7-    C8-    S3
   122    123    124    146      9   180.00  15.16700   2 ;     C6-    C7-    C8-   C27
   123    122    121    147      9   180.00  15.16700   2 ;     C7-    C6-    C5-   C28
   123    124    125    126      9   180.00   1.67360   2 ;     C7-    C8-    S3-    C9
   123    124    146    147      9   180.00  15.16700   2 ;     C7-    C8-   C27-   C28
   123    124    146    168      9   180.00  15.16700   2 ;     C7-    C8-   C27-   H19
   124    123    122    153      9   180.00  15.16700   2 ;     C8-    C7-    C6-    H4
   124    125    126    127      9   180.00   1.67360   2 ;     C8-    S3-    C9-   C10
   124    125    126    145      9   180.00   1.67360   2 ;     C8-    S3-    C9-   C26
   124    146    147    169      9   180.00  15.16700   2 ;     C8-   C27-   C28-   H20
   125    124    123    154      9   180.00  15.16700   2 ;     S3-    C8-    C7-    H5
   125    124    146    147      9   180.00  15.16700   2 ;     S3-    C8-   C27-   C28
   125    124    146    168      9   180.00  15.16700   2 ;     S3-    C8-   C27-   H19
   125    126    127    128      9   180.00  15.16700   2 ;     S3-    C9-   C10-   C11
   125    126    127    155      9   180.00  15.16700   2 ;     S3-    C9-   C10-    H6
   125    126    145    144      9   180.00  15.16700   2 ;     S3-    C9-   C26-   C25
   125    126    145    167      9   180.00  15.16700   2 ;     S3-    C9-   C26-   H18
   126    125    124    146      9   180.00   1.67360   2 ;     C9-    S3-    C8-   C27
   126    127    128    129      9   180.00  15.16700   2 ;     C9-   C10-   C11-   C12
   126    127    128    156      9   180.00  15.16700   2 ;     C9-   C10-   C11-    H7
   126    145    144    129      9   180.00  15.16700   2 ;     C9-   C26-   C25-   C12
   126    145    144    166      9   180.00  15.16700   2 ;     C9-   C26-   C25-   H17
   127    126    145    144      9   180.00  15.16700   2 ;    C10-    C9-   C26-   C25
   127    126    145    167      9   180.00  15.16700   2 ;    C10-    C9-   C26-   H18
   127    128    129    130      9   180.00  15.16700   2 ;    C10-   C11-   C12-    S4
   127    128    129    144      9   180.00  15.16700   2 ;    C10-   C11-   C12-   C25
   128    127    126    145      9   180.00  15.16700   2 ;    C11-   C10-    C9-   C26
   128    129    130    131      9   180.00   1.67360   2 ;    C11-   C12-    S4-   C13
   128    129    144    145      9   180.00  15.16700   2 ;    C11-   C12-   C25-   C26
   128    129    144    166      9   180.00  15.16700   2 ;    C11-   C12-   C25-   H17
   129    128    127    155      9   180.00  15.16700   2 ;    C12-   C11-   C10-    H6
   129    130    131    132      9   180.00   1.67360   2 ;    C12-    S4-   C13-   C14
   129    130    131    143      9   180.00   1.67360   2 ;    C12-    S4-   C13-   C24
   129    144    145    167      9   180.00  15.16700   2 ;    C12-   C25-   C26-   H18
   130    129    128    156      9   180.00  15.16700   2 ;     S4-   C12-   C11-    H7
   130    129    144    145      9   180.00  15.16700   2 ;     S4-   C12-   C25-   C26
   130    129    144    166      9   180.00  15.16700   2 ;     S4-   C12-   C25-   H17
   130    131    132    133      9   180.00  15.16700   2 ;     S4-   C13-   C14-   C15
   130    131    132    157      9   180.00  15.16700   2 ;     S4-   C13-   C14-    H8
   130    131    143    142      9   180.00  15.16700   2 ;     S4-   C13-   C24-   C23
   130    131    143    165      9   180.00  15.16700   2 ;     S4-   C13-   C24-   H16
   131    130    129    144      9   180.00   1.67360   2 ;    C13-    S4-   C12-   C25
   131    132    133    134      9   180.00  15.16700   2 ;    C13-   C14-   C15-   C16
   131    132    133    158      9   180.00  15.16700   2 ;    C13-   C14-   C15-    H9
   131    143    142    134      9   180.00  15.16700   2 ;    C13-   C24-   C23-   C16
   131    143    142    164      9   180.00  15.16700   2 ;    C13-   C24-   C23-   H15
   132    131    143    142      9   180.00  15.16700   2 ;    C14-   C13-   C24-   C23
   132    131    143    165      9   180.00  15.16700   2 ;    C14-   C13-   C24-   H16
   132    133    134    135      9   180.00  15.16700   2 ;    C14-   C15-   C16-    S5
   132    133    134    142      9   180.00  15.16700   2 ;    C14-   C15-   C16-   C23
   133    132    131    143      9   180.00  15.16700   2 ;    C15-   C14-   C13-   C24
   133    134    135    136      9   180.00   1.67360   2 ;    C15-   C16-    S5-   C17
   133    134    142    143      9   180.00  15.16700   2 ;    C15-   C16-   C23-   C24
   133    134    142    164      9   180.00  15.16700   2 ;    C15-   C16-   C23-   H15
   134    133    132    157      9   180.00  15.16700   2 ;    C16-   C15-   C14-    H8
   134    135    136    137      9   180.00   1.67360   2 ;    C16-    S5-   C17-   C18
   134    135    136    141      9   180.00   1.67360   2 ;    C16-    S5-   C17-   C22
   134    142    143    165      9   180.00  15.16700   2 ;    C16-   C23-   C24-   H16
   135    134    133    158      9   180.00  15.16700   2 ;     S5-   C16-   C15-    H9
   135    134    142    143      9   180.00  15.16700   2 ;     S5-   C16-   C23-   C24
   135    134    142    164      9   180.00  15.16700   2 ;     S5-   C16-   C23-   H15
   135    136    137    138      9   180.00  15.16700   2 ;     S5-   C17-   C18-   C19
   135    136    137    159      9   180.00  15.16700   2 ;     S5-   C17-   C18-   H10
   135    136    141    140      9   180.00  15.16700   2 ;     S5-   C17-   C22-   C21
   135    136    141    163      9   180.00  15.16700   2 ;     S5-   C17-   C22-   H14
   136    135    134    142      9   180.00   1.67360   2 ;    C17-    S5-   C16-   C23
   136    137    138    139      9   180.00  15.16700   2 ;    C17-   C18-   C19-   C20
   136    137    138    160      9   180.00  15.16700   2 ;    C17-   C18-   C19-   H11
   136    141    140    139      9   180.00  15.16700   2 ;    C17-   C22-   C21-   C20
   136    141    140    162      9   180.00  15.16700   2 ;    C17-   C22-   C21-   H13
   137    136    141    140      9   180.00  15.16700   2 ;    C18-   C17-   C22-   C21
   137    136    141    163      9   180.00  15.16700   2 ;    C18-   C17-   C22-   H14
   137    138    139    140      9   180.00  15.16700   2 ;    C18-   C19-   C20-   C21
   137    138    139    161      9   180.00  15.16700   2 ;    C18-   C19-   C20-   H12
   138    137    136    141      9   180.00  15.16700   2 ;    C19-   C18-   C17-   C22
   138    139    140    141      9   180.00  15.16700   2 ;    C19-   C20-   C21-   C22
   138    139    140    162      9   180.00  15.16700   2 ;    C19-   C20-   C21-   H13
   139    138    137    159      9   180.00  15.16700   2 ;    C20-   C19-   C18-   H10
   139    140    141    163      9   180.00  15.16700   2 ;    C20-   C21-   C22-   H14
   140    139    138    160      9   180.00  15.16700   2 ;    C21-   C20-   C19-   H11
   141    136    137    159      9   180.00  15.16700   2 ;    C22-   C17-   C18-   H10
   141    140    139    161      9   180.00  15.16700   2 ;    C22-   C21-   C20-   H12
   142    134    133    158      9   180.00  15.16700   2 ;    C23-   C16-   C15-    H9
   143    131    132    157      9   180.00  15.16700   2 ;    C24-   C13-   C14-    H8
   144    129    128    156      9   180.00  15.16700   2 ;    C25-   C12-   C11-    H7
   145    126    127    155      9   180.00  15.16700   2 ;    C26-    C9-   C10-    H6
   146    124    123    154      9   180.00  15.16700   2 ;    C27-    C8-    C7-    H5
   147    121    122    153      9   180.00  15.16700   2 ;    C28-    C5-    C6-    H4
   148    119    118    152      9   180.00  15.16700   2 ;    C29-    C4-    C3-    H3
   149    116    115    150      9   180.00   0.48116   2 ;    C30-    C1-    S1-    H1
   149    116    117    151      9   180.00  15.16700   2 ;    C30-    C1-    C2-    H2
   151    117    118    152      9   180.00  15.16700   2 ;     H2-    C2-    C3-    H3
   153    122    123    154      9   180.00  15.16700   2 ;     H4-    C6-    C7-    H5
   155    127    128    156      9   180.00  15.16700   2 ;     H6-   C10-   C11-    H7
   157    132    133    158      9   180.00  15.16700   2 ;     H8-   C14-   C15-    H9
   159    137    138    160      9   180.00  15.16700   2 ;    H10-   C18-   C19-   H11
   160    138    139    161      9   180.00  15.16700   2 ;    H11-   C19-   C20-   H12
   161    139    140    162      9   180.00  15.16700   2 ;    H12-   C20-   C21-   H13
   162    140    141    163      9   180.00  15.16700   2 ;    H13-   C21-   C22-   H14
   164    142    143    165      9   180.00  15.16700   2 ;    H15-   C23-   C24-   H16
   166    144    145    167      9   180.00  15.16700   2 ;    H17-   C25-   C26-   H18
   168    146    147    169      9   180.00  15.16700   2 ;    H19-   C27-   C28-   H20
   170    148    149    171      9   180.00  15.16700   2 ;    H21-   C29-   C30-   H22
   172    173    174    175      9   180.00  15.16700   2 ;     S1-    C1-    C2-    C3
   172    173    174    208      9   180.00  15.16700   2 ;     S1-    C1-    C2-    H2
   172    173    206    205      9   180.00  15.16700   2 ;     S1-    C1-   C30-   C29
   172    173    206    228      9   180.00  15.16700   2 ;     S1-    C1-   C30-   H22
   173    174    175    176      9   180.00  15.16700   2 ;     C1-    C2-    C3-    C4
   173    174    175    209      9   180.00  15.16700   2 ;     C1-    C2-    C3-    H3
   173    206    205    176      9   180.00  15.16700   2 ;     C1-   C30-   C29-    C4
   173    206    205    227      9   180.00  15.16700   2 ;     C1-   C30-   C29-   H21
   174    173    172    207      9   180.00   0.48116   2 ;     C2-    C1-    S1-    H1
   174    173    206    205      9   180.00  15.16700   2 ;     C2-    C1-   C30-   C29
   174    173    206    228      9   180.00  15.16700   2 ;     C2-    C1-   C30-   H22
   174    175    176    177      9   180.00  15.16700   2 ;     C2-    C3-    C4-    S2
   174    175    176    205      9   180.00  15.16700   2 ;     C2-    C3-    C4-   C29
   175    174    173    206      9   180.00  15.16700   2 ;     C3-    C2-    C1-   C30
   175    176    177    178      9   180.00   1.67360   2 ;     C3-    C4-    S2-    C5
   175    176    205    206      9   180.00  15.16700   2 ;     C3-    C4-   C29-   C30
   175    176    205    227      9   180.00  15.16700   2 ;     C3-    C4-   C29-   H21
   176    175    174    208      9   180.00  15.16700   2 ;     C4-    C3-    C2-    H2
   176    177    178    179      9   180.00   1.67360   2 ;     C4-    S2-    C5-    C6
   176    177    178    204      9   180.00   1.67360   2 ;     C4-    S2-    C5-   C28
   176    205    206    228      9   180.00  15.16700   2 ;     C4-   C29-   C30-   H22
   177    176    175    209      9   180.00  15.16700   2 ;     S2-    C4-    C3-    H3
   177    176    205    206      9   180.00  15.16700   2 ;     S2-    C4-   C29-   C30
   177    176    205    227      9   180.00  15.16700   2 ;     S2-    C4-   C29-   H21
   177    178    179    180      9   180.00  15.16700   2 ;     S2-    C5-    C6-    C7
   177    178    179    210      9   180.00  15.16700   2 ;     S2-    C5-    C6-    H4
   177    178    204    203      9   180.00  15.16700   2 ;     S2-    C5-   C28-   C27
   177    178    204    226      9   180.00  15.16700   2 ;     S2-    C5-   C28-   H20
   178    177    176    205      9   180.00   1.67360   2 ;     C5-    S2-    C4-   C29
   178    179    180    181      9   180.00  15.16700   2 ;     C5-    C6-    C7-    C8
   178    179    180    211      9   180.00  15.16700   2 ;     C5-    C6-    C7-    H5
   178    204    203    181      9   180.00  15.16700   2 ;     C5-   C28-   C27-    C8
   178    204    203    225      9   180.00  15.16700   2 ;     C5-   C28-   C27-   H19
   179    178    204    203      9   180.00  15.16700   2 ;     C6-    C5-   C28-   C27
   179    178    204    226      9   180.00  15.16700   2 ;     C6-    C5-   C28-   H20
   179    180    181    182      9   180.00  15.16700   2 ;     C6-    C7-    C8-    S3
   179    180    181    203      9   180.00  15.16700   2 ;     C6-    C7-    C8-   C27
   180    179    178    204      9   180.00  15.16700   2 ;     C7-    C6-    C5-   C28
   180    181    182    183      9   180.00   1.67360   2 ;     C7-    C8-    S3-    C9
   180    181    203    204      9   180.00  15.16700   2 ;     C7-    C8-   C27-   C28
   180    181    203    225      9   180.00  15.16700   2 ;     C7-    C8-   C27-   H19
   181    180    179    210      9   180.00  15.16700   2 ;     C8-    C7-    C6-    H4
   181    182    183    184      9   180.00   1.67360   2 ;     C8-    S3-    C9-   C10
   181    182    183    202      9   180.00   1.67360   2 ;     C8-    S3-    C9-   C26
   181    203    204    226      9   180.00  15.16700   2 ;     C8-   C27-   C28-   H20
   182    181    180    211      9   180.00  15.16700   2 ;     S3-    C8-    C7-    H5
   182    181    203    204      9   180.00  15.16700   2 ;     S3-    C8-   C27-   C28
   182    181    203    225      9   180.00  15.16700   2 ;     S3-    C8-   C27-   H19
   182    183    184    185      9   180.00  15.16700   2 ;     S3-    C9-   C10-   C11
   182    183    184    212      9   180.00  15.16700   2 ;     S3-    C9-   C10-    H6
   182    183    202    201      9   180.00  15.16700   2 ;     S3-    C9-   C26-   C25
   182    183    202    224      9   180.00  15.16700   2 ;     S3-    C9-   C26-   H18
   183    182    181    203      9   180.00   1.67360   2 ;     C9-    S3-    C8-   C27
   183    184    185    186      9   180.00  15.16700   2 ;     C9-   C10-   C11-   C12
   183    184    185    213      9   180.00  15.16700   2 ;     C9-   C10-   C11-    H7
   183    202    201    186      9   180.00  15.16700   2 ;     C9-   C26-   C25-   C12
   183    202    201    223      9   180.00  15.16700   2 ;     C9-   C26-   C25-   H17
   184    183    202    201      9   180.00  15.16700   2 ;    C10-    C9-   C26-   C25
   184    183    202    224      9   180.00  15.16700   2 ;    C10-    C9-   C26-   H18
   184    185    186    187      9   180.00  15.16700   2 ;    C10-   C11-   C12-    S4
   184    185    186    201      9   180.00  15.16700   2 ;    C10-   C11-   C12-   C25
   185    184    183    202      9   180.00  15.16700   2 ;    C11-   C10-    C9-   C26
   185    186    187    188      9   180.00   1.67360   2 ;    C11-   C12-    S4-   C13
   185    186    201    202      9   180.00  15.16700   2 ;    C11-   C12-   C25-   C26
   185    186    201    223      9   180.00  15.16700   2 ;    C11-   C12-   C25-   H17
   186    185    184    212      9   180.00  15.16700   2 ;    C12-   C11-   C10-    H6
   186    187    188    189      9   180.00   1.67360   2 ;    C12-    S4-   C13-   C14
   186    187    188    200      9   180.00   1.67360   2 ;    C12-    S4-   C13-   C24
   186    201    202    224      9   180.00  15.16700   2 ;    C12-   C25-   C26-   H18
   187    186    185    213      9   180.00  15.16700   2 ;     S4-   C12-   C11-    H7
   187    186    201    202      9   180.00  15.16700   2 ;     S4-   C12-   C25-   C26
   187    186    201    223      9   180.00  15.16700   2 ;     S4-   C12-   C25-   H17
   187    188    189    190      9   180.00  15.16700   2 ;     S4-   C13-   C14-   C15
   187    188    189    214      9   180.00  15.16700   2 ;     S4-   C13-   C14-    H8
   187    188    200    199      9   180.00  15.16700   2 ;     S4-   C13-   C24-   C23
   187    188    200    222      9   180.00  15.16700   2 ;     S4-   C13-   C24-   H16
   188    187    186    201      9   180.00   1.67360   2 ;    C13-    S4-   C12-   C25
   188    189    190    191      9   180.00  15.16700   2 ;    C13-   C14-   C15-   C16
   188    189    190    215      9   180.00  15.16700   2 ;    C13-   C14-   C15-    H9
   188    200    199    191      9   180.00  15.16700   2 ;    C13-   C24-   C23-   C16
   188    200    199    221      9   180.00  15.16700   2 ;    C13-   C24-   C23-   H15
   189    188    200    199      9   180.00  15.16700   2 ;    C14-   C13-   C24-   C23
   189    188    200    222      9   180.00  15.16700   2 ;    C14-   C13-   C24-   H16
   189    190    191    192      9   180.00  15.16700   2 ;    C14-   C15-   C16-    S5
   189    190    191    199      9   180.00  15.16700   2 ;    C14-   C15-   C16-   C23
   190    189    188    200      9   180.00  15.16700   2 ;    C15-   C14-   C13-   C24
   190    191    192    193      9   180.00   1.67360   2 ;    C15-   C16-    S5-   C17
   190    191    199    200      9   180.00  15.16700   2 ;    C15-   C16-   C23-   C24
   190    191    199    221      9   180.00  15.16700   2 ;    C15-   C16-   C23-   H15
   191    190    189    214      9   180.00  15.16700   2 ;    C16-   C15-   C14-    H8
   191    192    193    194      9   180.00   1.67360   2 ;    C16-    S5-   C17-   C18
   191    192    193    198      9   180.00   1.67360   2 ;    C16-    S5-   C17-   C22
   191    199    200    222      9   180.00  15.16700   2 ;    C16-   C23-   C24-   H16
   192    191    190    215      9   180.00  15.16700   2 ;     S5-   C16-   C15-    H9
   192    191    199    200      9   180.00  15.16700   2 ;     S5-   C16-   C23-   C24
   192    191    199    221      9   180.00  15.16700   2 ;     S5-   C16-   C23-   H15
   192    193    194    195      9   180.00  15.16700   2 ;     S5-   C17-   C18-   C19
   192    193    194    216      9   180.00  15.16700   2 ;     S5-   C17-   C18-   H10
   192    193    198    197      9   180.00  15.16700   2 ;     S5-   C17-   C22-   C21
   192    193    198    220      9   180.00  15.16700   2 ;     S5-   C17-   C22-   H14
   193    192    191    199      9   180.00   1.67360   2 ;    C17-    S5-   C16-   C23
   193    194    195    196      9   180.00  15.16700   2 ;    C17-   C18-   C19-   C20
   193    194    195    217      9   180.00  15.16700   2 ;    C17-   C18-   C19-   H11
   193    198    197    196      9   180.00  15.16700   2 ;    C17-   C22-   C21-   C20
   193    198    197    219      9   180.00  15.16700   2 ;    C17-   C22-   C21-   H13
   194    193    198    197      9   180.00  15.16700   2 ;    C18-   C17-   C22-   C21
   194    193    198    220      9   180.00  15.16700   2 ;    C18-   C17-   C22-   H14
   194    195    196    197      9   180.00  15.16700   2 ;    C18-   C19-   C20-   C21
   194    195    196    218      9   180.00  15.16700   2 ;    C18-   C19-   C20-   H12
   195    194    193    198      9   180.00  15.16700   2 ;    C19-   C18-   C17-   C22
   195    196    197    198      9   180.00  15.16700   2 ;    C19-   C20-   C21-   C22
   195    196    197    219      9   180.00  15.16700   2 ;    C19-   C20-   C21-   H13
   196    195    194    216      9   180.00  15.16700   2 ;    C20-   C19-   C18-   H10
   196    197    198    220      9   180.00  15.16700   2 ;    C20-   C21-   C22-   H14
   197    196    195    217      9   180.00  15.16700   2 ;    C21-   C20-   C19-   H11
   198    193    194    216      9   180.00  15.16700   2 ;    C22-   C17-   C18-   H10
   198    197    196    218      9   180.00  15.16700   2 ;    C22-   C21-   C20-   H12
   199    191    190    215      9   180.00  15.16700   2 ;    C23-   C16-   C15-    H9
   200    188    189    214      9   180.00  15.16700   2 ;    C24-   C13-   C14-    H8
   201    186    185    213      9   180.00  15.16700   2 ;    C25-   C12-   C11-    H7
   202    183    184    212      9   180.00  15.16700   2 ;    C26-    C9-   C10-    H6
   203    181    180    211      9   180.00  15.16700   2 ;    C27-    C8-    C7-    H5
   204    178    179    210      9   180.00  15.16700   2 ;    C28-    C5-    C6-    H4
   205    176    175    209      9   180.00  15.16700   2 ;    C29-    C4-    C3-    H3
   206    173    172    207      9   180.00   0.48116   2 ;    C30-    C1-    S1-    H1
   206    173    174    208      9   180.00  15.16700   2 ;    C30-    C1-    C2-    H2
   208    174    175    209      9   180.00  15.16700   2 ;     H2-    C2-    C3-    H3
   210    179    180    211      9   180.00  15.16700   2 ;     H4-    C6-    C7-    H5
   212    184    185    213      9   180.00  15.16700   2 ;     H6-   C10-   C11-    H7
   214    189    190    215      9   180.00  15.16700   2 ;     H8-   C14-   C15-    H9
   216    194    195    217      9   180.00  15.16700   2 ;    H10-   C18-   C19-   H11
   217    195    196    218      9   180.00  15.16700   2 ;    H11-   C19-   C20-   H12
   218    196    197    219      9   180.00  15.16700   2 ;    H12-   C20-   C21-   H13
   219    197    198    220      9   180.00  15.16700   2 ;    H13-   C21-   C22-   H14
   221    199    200    222      9   180.00  15.16700   2 ;    H15-   C23-   C24-   H16
   223    201    202    224      9   180.00  15.16700   2 ;    H17-   C25-   C26-   H18
   225    203    204    226      9   180.00  15.16700   2 ;    H19-   C27-   C28-   H20
   227    205    206    228      9   180.00  15.16700   2 ;    H21-   C29-   C30-   H22
   229    230    231    232      9   180.00  15.16700   2 ;     S1-    C1-    C2-    C3
   229    230    231    265      9   180.00  15.16700   2 ;     S1-    C1-    C2-    H2
   229    230    263    262      9   180.00  15.16700   2 ;     S1-    C1-   C30-   C29
   229    230    263    285      9   180.00  15.16700   2 ;     S1-    C1-   C30-   H22
   230    231    232    233      9   180.00  15.16700   2 ;     C1-    C2-    C3-    C4
   230    231    232    266      9   180.00  15.16700   2 ;     C1-    C2-    C3-    H3
   230    263    262    233      9   180.00  15.16700   2 ;     C1-   C30-   C29-    C4
   230    263    262    284      9   180.00  15.16700   2 ;     C1-   C30-   C29-   H21
   231    230    229    264      9   180.00   0.48116   2 ;     C2-    C1-    S1-    H1
   231    230    263    262      9   180.00  15.16700   2 ;     C2-    C1-   C30-   C29
   231    230    263    285      9   180.00  15.16700   2 ;     C2-    C1-   C30-   H22
   231    232    233    234      9   180.00  15.16700   2 ;     C2-    C3-    C4-    S2
   231    232    233    262      9   180.00  15.16700   2 ;     C2-    C3-    C4-   C29
   232    231    230    263      9   180.00  15.16700   2 ;     C3-    C2-    C1-   C30
   232    233    234    235      9   180.00   1.67360   2 ;     C3-    C4-    S2-    C5
   232    233    262    263      9   180.00  15.16700   2 ;     C3-    C4-   C29-   C30
   232    233    262    284      9   180.00  15.16700   2 ;     C3-    C4-   C29-   H21
   233    232    231    265      9   180.00  15.16700   2 ;     C4-    C3-    C2-    H2
   233    234    235    236      9   180.00   1.67360   2 ;     C4-    S2-    C5-    C6
   233    234    235    261      9   180.00   1.67360   2 ;     C4-    S2-    C5-   C28
   233    262    263    285      9   180.00  15.16700   2 ;     C4-   C29-   C30-   H22
   234    233    232    266      9   180.00  15.16700   2 ;     S2-    C4-    C3-    H3
   234    233    262    263      9   180.00  15.16700   2 ;     S2-    C4-   C29-   C30
   234    233    262    284      9   180.00  15.16700   2 ;     S2-    C4-   C29-   H21
   234    235    236    237      9   180.00  15.16700   2 ;     S2-    C5-    C6-    C7
   234    235    236    267      9   180.00  15.16700   2 ;     S2-    C5-    C6-    H4
   234    235    261    260      9   180.00  15.16700   2 ;     S2-    C5-   C28-   C27
   234    235    261    283      9   180.00  15.16700   2 ;     S2-    C5-   C28-   H20
   235    234    233    262      9   180.00   1.67360   2 ;     C5-    S2-    C4-   C29
   235    236    237    238      9   180.00  15.16700   2 ;     C5-    C6-    C7-    C8
   235    236    237    268      9   180.00  15.16700   2 ;     C5-    C6-    C7-    H5
   235    261    260    238      9   180.00  15.16700   2 ;     C5-   C28-   C27-    C8
   235    261    260    282      9   180.00  15.16700   2 ;     C5-   C28-   C27-   H19
   236    235    261    260      9   180.00  15.16700   2 ;     C6-    C5-   C28-   C27
   236    235    261    283      9   180.00  15.16700   2 ;     C6-    C5-   C28-   H20
   236    237    238    239      9   180.00  15.16700   2 ;     C6-    C7-    C8-    S3
   236    237    238    260      9   180.00  15.16700   2 ;     C6-    C7-    C8-   C27
   237    236    235    261      9   180.00  15.16700   2 ;     C7-    C6-    C5-   C28
   237    238    239    240      9   180.00   1.67360   2 ;     C7-    C8-    S3-    C9
   237    238    260    261      9   180.00  15.16700   2 ;     C7-    C8-   C27-   C28
   237    238    260    282      9   180.00  15.16700   2 ;     C7-    C8-   C27-   H19
   238    237    236    267      9   180.00  15.16700   2 ;     C8-    C7-    C6-    H4
   238    239    240    241      9   180.00   1.67360   2 ;     C8-    S3-    C9-   C10
   238    239    240    259      9   180.00   1.67360   2 ;     C8-    S3-    C9-   C26
   238    260    261    283      9   180.00  15.16700   2 ;     C8-   C27-   C28-   H20
   239    238    237    268      9   180.00  15.16700   2 ;     S3-    C8-    C7-    H5
   239    238    260    261      9   180.00  15.16700   2 ;     S3-    C8-   C27-   C28
   239    238    260    282      9   180.00  15.16700   2 ;     S3-    C8-   C27-   H19
   239    240    241    242      9   180.00  15.16700   2 ;     S3-    C9-   C10-   C11
   239    240    241    269      9   180.00  15.16700   2 ;     S3-    C9-   C10-    H6
   239    240    259    258      9   180.00  15.16700   2 ;     S3-    C9-   C26-   C25
   239    240    259    281      9   180.00  15.16700   2 ;     S3-    C9-   C26-   H18
   240    239    238    260      9   180.00   1.67360   2 ;     C9-    S3-    C8-   C27
   240    241    242    243      9   180.00  15.16700   2 ;     C9-   C10-   C11-   C12
   240    241    242    270      9   180.00  15.16700   2 ;     C9-   C10-   C11-    H7
   240    259    258    243      9   180.00  15.16700   2 ;     C9-   C26-   C25-   C12
   240    259    258    280      9   180.00  15.16700   2 ;     C9-   C26-   C25-   H17
   241    240    259    258      9   180.00  15.16700   2 ;    C10-    C9-   C26-   C25
   241    240    259    281      9   180.00  15.16700   2 ;    C10-    C9-   C26-   H18
   241    242    243    244      9   180.00  15.16700   2 ;    C10-   C11-   C12-    S4
   241    242    243    258      9   180.00  15.16700   2 ;    C10-   C11-   C12-   C25
   242    241    240    259      9   180.00  15.16700   2 ;    C11-   C10-    C9-   C26
   242    243    244    245      9   180.00   1.67360   2 ;    C11-   C12-    S4-   C13
   242    243    258    259      9   180.00  15.16700   2 ;    C11-   C12-   C25-   C26
   242    243    258    280      9   180.00  15.16700   2 ;    C11-   C12-   C25-   H17
   243    242    241    269      9   180.00  15.16700   2 ;    C12-   C11-   C10-    H6
   243    244    245    246      9   180.00   1.67360   2 ;    C12-    S4-   C13-   C14
   243    244    245    257      9   180.00   1.67360   2 ;    C12-    S4-   C13-   C24
   243    258    259    281      9   180.00  15.16700   2 ;    C12-   C25-   C26-   H18
   244    243    242    270      9   180.00  15.16700   2 ;     S4-   C12-   C11-    H7
   244    243    258    259      9   180.00  15.16700   2 ;     S4-   C12-   C25-   C26
   244    243    258    280      9   180.00  15.16700   2 ;     S4-   C12-   C25-   H17
   244    245    246    247      9   180.00  15.16700   2 ;     S4-   C13-   C14-   C15
   244    245    246    271      9   180.00  15.16700   2 ;     S4-   C13-   C14-    H8
   244    245    257    256      9   180.00  15.16700   2 ;     S4-   C13-   C24-   C23
   244    245    257    279      9   180.00  15.16700   2 ;     S4-   C13-   C24-   H16
   245    244    243    258      9   180.00   1.67360   2 ;    C13-    S4-   C12-   C25
   245    246    247    248      9   180.00  15.16700   2 ;    C13-   C14-   C15-   C16
   245    246    247    272      9   180.00  15.16700   2 ;    C13-   C14-   C15-    H9
   245    257    256    248      9   180.00  15.16700   2 ;    C13-   C24-   C23-   C16
   245    257    256    278      9   180.00  15.16700   2 ;    C13-   C24-   C23-   H15
   246    245    257    256      9   180.00  15.16700   2 ;    C14-   C13-   C24-   C23
   246    245    257    279      9   180.00  15.16700   2 ;    C14-   C13-   C24-   H16
   246    247    248    249      9   180.00  15.16700   2 ;    C14-   C15-   C16-    S5
   246    247    248    256      9   180.00  15.16700   2 ;    C14-   C15-   C16-   C23
   247    246    245    257      9   180.00  15.16700   2 ;    C15-   C14-   C13-   C24
   247    248    249    250      9   180.00   1.67360   2 ;    C15-   C16-    S5-   C17
   247    248    256    257      9   180.00  15.16700   2 ;    C15-   C16-   C23-   C24
   247    248    256    278      9   180.00  15.16700   2 ;    C15-   C16-   C23-   H15
   248    247    246    271      9   180.00  15.16700   2 ;    C16-   C15-   C14-    H8
   248    249    250    251      9   180.00   1.67360   2 ;    C16-    S5-   C17-   C18
   248    249    250    255      9   180.00   1.67360   2 ;    C16-    S5-   C17-   C22
   248    256    257    279      9   180.00  15.16700   2 ;    C16-   C23-   C24-   H16
   249    248    247    272      9   180.00  15.16700   2 ;     S5-   C16-   C15-    H9
   249    248    256    257      9   180.00  15.16700   2 ;     S5-   C16-   C23-   C24
   249    248    256    278      9   180.00  15.16700   2 ;     S5-   C16-   C23-   H15
   249    250    251    252      9   180.00  15.16700   2 ;     S5-   C17-   C18-   C19
   249    250    251    273      9   180.00  15.16700   2 ;     S5-   C17-   C18-   H10
   249    250    255    254      9   180.00  15.16700   2 ;     S5-   C17-   C22-   C21
   249    250    255    277      9   180.00  15.16700   2 ;     S5-   C17-   C22-   H14
   250    249    248    256      9   180.00   1.67360   2 ;    C17-    S5-   C16-   C23
   250    251    252    253      9   180.00  15.16700   2 ;    C17-   C18-   C19-   C20
   250    251    252    274      9   180.00  15.16700   2 ;    C17-   C18-   C19-   H11
   250    255    254    253      9   180.00  15.16700   2 ;    C17-   C22-   C21-   C20
   250    255    254    276      9   180.00  15.16700   2 ;    C17-   C22-   C21-   H13
   251    250    255    254      9   180.00  15.16700   2 ;    C18-   C17-   C22-   C21
   251    250    255    277      9   180.00  15.16700   2 ;    C18-   C17-   C22-   H14
   251    252    253    254      9   180.00  15.16700   2 ;    C18-   C19-   C20-   C21
   251    252    253    275      9   180.00  15.16700   2 ;    C18-   C19-   C20-   H12
   252    251    250    255      9   180.00  15.16700   2 ;    C19-   C18-   C17-   C22
   252    253    254    255      9   180.00  15.16700   2 ;    C19-   C20-   C21-   C22
   252    253    254    276      9   180.00  15.16700   2 ;    C19-   C20-   C21-   H13
   253    252    251    273      9   180.00  15.16700   2 ;    C20-   C19-   C18-   H10
   253    254    255    277      9   180.00  15.16700   2 ;    C20-   C21-   C22-   H14
   254    253    252    274      9   180.00  15.16700   2 ;    C21-   C20-   C19-   H11
   255    250    251    273      9   180.00  15.16700   2 ;    C22-   C17-   C18-   H10
   255    254    253    275      9   180.00  15.16700   2 ;    C22-   C21-   C20-   H12
   256    248    247    272      9   180.00  15.16700   2 ;    C23-   C16-   C15-    H9
   257    245    246    271      9   180.00  15.16700   2 ;    C24-   C13-   C14-    H8
   258    243    242    270      9   180.00  15.16700   2 ;    C25-   C12-   C11-    H7
   259    240    241    269      9   180.00  15.16700   2 ;    C26-    C9-   C10-    H6
   260    238    237    268      9   180.00  15.16700   2 ;    C27-    C8-    C7-    H5
   261    235    236    267      9   180.00  15.16700   2 ;    C28-    C5-    C6-    H4
   262    233    232    266      9   180.00  15.16700   2 ;    C29-    C4-    C3-    H3
   263    230    229    264      9   180.00   0.48116   2 ;    C30-    C1-    S1-    H1
   263    230    231    265      9   180.00  15.16700   2 ;    C30-    C1-    C2-    H2
   265    231    232    266      9   180.00  15.16700   2 ;     H2-    C2-    C3-    H3
   267    236    237    268      9   180.00  15.16700   2 ;     H4-    C6-    C7-    H5
   269    241    242    270      9   180.00  15.16700   2 ;     H6-   C10-   C11-    H7
   271    246    247    272      9   180.00  15.16700   2 ;     H8-   C14-   C15-    H9
   273    251    252    274      9   180.00  15.16700   2 ;    H10-   C18-   C19-   H11
   274    252    253    275      9   180.00  15.16700   2 ;    H11-   C19-   C20-   H12
   275    253    254    276      9   180.00  15.16700   2 ;    H12-   C20-   C21-   H13
   276    254    255    277      9   180.00  15.16700   2 ;    H13-   C21-   C22-   H14
   278    256    257    279      9   180.00  15.16700   2 ;    H15-   C23-   C24-   H16
   280    258    259    281      9   180.00  15.16700   2 ;    H17-   C25-   C26-   H18
   282    260    261    283      9   180.00  15.16700   2 ;    H19-   C27-   C28-   H20
   284    262    263    285      9   180.00  15.16700   2 ;    H21-   C29-   C30-   H22
   286    287    288    289      9   180.00  15.16700   2 ;     S1-    C1-    C2-    C3
   286    287    288    322      9   180.00  15.16700   2 ;     S1-    C1-    C2-    H2
   286    287    320    319      9   180.00  15.16700   2 ;     S1-    C1-   C30-   C29
   286    287    320    342      9   180.00  15.16700   2 ;     S1-    C1-   C30-   H22
   287    288    289    290      9   180.00  15.16700   2 ;     C1-    C2-    C3-    C4
   287    288    289    323      9   180.00  15.16700   2 ;     C1-    C2-    C3-    H3
   287    320    319    290      9   180.00  15.16700   2 ;     C1-   C30-   C29-    C4
   287    320    319    341      9   180.00  15.16700   2 ;     C1-   C30-   C29-   H21
   288    287    286    321      9   180.00   0.48116   2 ;     C2-    C1-    S1-    H1
   288    287    320    319      9   180.00  15.16700   2 ;     C2-    C1-   C30-   C29
   288    287    320    342      9   180.00  15.16700   2 ;     C2-    C1-   C30-   H22
   288    289    290    291      9   180.00  15.16700   2 ;     C2-    C3-    C4-    S2
   288    289    290    319      9   180.00  15.16700   2 ;     C2-    C3-    C4-   C29
   289    288    287    320      9   180.00  15.16700   2 ;     C3-    C2-    C1-   C30
   289    290    291    292      9   180.00   1.67360   2 ;     C3-    C4-    S2-    C5
   289    290    319    320      9   180.00  15.16700   2 ;     C3-    C4-   C29-   C30
   289    290    319    341      9   180.00  15.16700   2 ;     C3-    C4-   C29-   H21
   290    289    288    322      9   180.00  15.16700   2 ;     C4-    C3-    C2-    H2
   290    291    292    293      9   180.00   1.67360   2 ;     C4-    S2-    C5-    C6
   290    291    292    318      9   180.00   1.67360   2 ;     C4-    S2-    C5-   C28
   290    319    320    342      9   180.00  15.16700   2 ;     C4-   C29-   C30-   H22
   291    290    289    323      9   180.00  15.16700   2 ;     S2-    C4-    C3-    H3
   291    290    319    320      9   180.00  15.16700   2 ;     S2-    C4-   C29-   C30
   291    290    319    341      9   180.00  15.16700   2 ;     S2-    C4-   C29-   H21
   291    292    293    294      9   180.00  15.16700   2 ;     S2-    C5-    C6-    C7
   291    292    293    324      9   180.00  15.16700   2 ;     S2-    C5-    C6-    H4
   291    292    318    317      9   180.00  15.16700   2 ;     S2-    C5-   C28-   C27
   291    292    318    340      9   180.00  15.16700   2 ;     S2-    C5-   C28-   H20
   292    291    290    319      9   180.00   1.67360   2 ;     C5-    S2-    C4-   C29
   292    293    294    295      9   180.00  15.16700   2 ;     C5-    C6-    C7-    C8
   292    293    294    325      9   180.00  15.16700   2 ;     C5-    C6-    C7-    H5
   292    318    317    295      9   180.00  15.16700   2 ;     C5-   C28-   C27-    C8
   292    318    317    339      9   180.00  15.16700   2 ;     C5-   C28-   C27-   H19
   293    292    318    317      9   180.00  15.16700   2 ;     C6-    C5-   C28-   C27
   293    292    318    340      9   180.00  15.16700   2 ;     C6-    C5-   C28-   H20
   293    294    295    296      9   180.00  15.16700   2 ;     C6-    C7-    C8-    S3
   293    294    295    317      9   180.00  15.16700   2 ;     C6-    C7-    C8-   C27
   294    293    292    318      9   180.00  15.16700   2 ;     C7-    C6-    C5-   C28
   294    295    296    297      9   180.00   1.67360   2 ;     C7-    C8-    S3-    C9
   294    295    317    318      9   180.00  15.16700   2 ;     C7-    C8-   C27-   C28
   294    295    317    339      9   180.00  15.16700   2 ;     C7-    C8-   C27-   H19
   295    294    293    324      9   180.00  15.16700   2 ;     C8-    C7-    C6-    H4
   295    296    297    298      9   180.00   1.67360   2 ;     C8-    S3-    C9-   C10
   295    296    297    316      9   180.00   1.67360   2 ;     C8-    S3-    C9-   C26
   295    317    318    340      9   180.00  15.16700   2 ;     C8-   C27-   C28-   H20
   296    295    294    325      9   180.00  15.16700   2 ;     S3-    C8-    C7-    H5
   296    295    317    318      9   180.00  15.16700   2 ;     S3-    C8-   C27-   C28
   296    295    317    339      9   180.00  15.16700   2 ;     S3-    C8-   C27-   H19
   296    297    298    299      9   180.00  15.16700   2 ;     S3-    C9-   C10-   C11
   296    297    298    326      9   180.00  15.16700   2 ;     S3-    C9-   C10-    H6
   296    297    316    315      9   180.00  15.16700   2 ;     S3-    C9-   C26-   C25
   296    297    316    338      9   180.00  15.16700   2 ;     S3-    C9-   C26-   H18
   297    296    295    317      9   180.00   1.67360   2 ;     C9-    S3-    C8-   C27
   297    298    299    300      9   180.00  15.16700   2 ;     C9-   C10-   C11-   C12
   297    298    299    327      9   180.00  15.16700   2 ;     C9-   C10-   C11-    H7
   297    316    315    300      9   180.00  15.16700   2 ;     C9-   C26-   C25-   C12
   297    316    315    337      9   180.00  15.16700   2 ;     C9-   C26-   C25-   H17
   298    297    316    315      9   180.00  15.16700   2 ;    C10-    C9-   C26-   C25
   298    297    316    338      9   180.00  15.16700   2 ;    C10-    C9-   C26-   H18
   298    299    300    301      9   180.00  15.16700   2 ;    C10-   C11-   C12-    S4
   298    299    300    315      9   180.00  15.16700   2 ;    C10-   C11-   C12-   C25
   299    298    297    316      9   180.00  15.16700   2 ;    C11-   C10-    C9-   C26
   299    300    301    302      9   180.00   1.67360   2 ;    C11-   C12-    S4-   C13
   299    300    315    316      9   180.00  15.16700   2 ;    C11-   C12-   C25-   C26
   299    300    315    337      9   180.00  15.16700   2 ;    C11-   C12-   C25-   H17
   300    299    298    326      9   180.00  15.16700   2 ;    C12-   C11-   C10-    H6
   300    301    302    303      9   180.00   1.67360   2 ;    C12-    S4-   C13-   C14
   300    301    302    314      9   180.00   1.67360   2 ;    C12-    S4-   C13-   C24
   300    315    316    338      9   180.00  15.16700   2 ;    C12-   C25-   C26-   H18
   301    300    299    327      9   180.00  15.16700   2 ;     S4-   C12-   C11-    H7
   301    300    315    316      9   180.00  15.16700   2 ;     S4-   C12-   C25-   C26
   301    300    315    337      9   180.00  15.16700   2 ;     S4-   C12-   C25-   H17
   301    302    303    304      9   180.00  15.16700   2 ;     S4-   C13-   C14-   C15
   301    302    303    328      9   180.00  15.16700   2 ;     S4-   C13-   C14-    H8
   301    302    314    313      9   180.00  15.16700   2 ;     S4-   C13-   C24-   C23
   301    302    314    336      9   180.00  15.16700   2 ;     S4-   C13-   C24-   H16
   302    301    300    315      9   180.00   1.67360   2 ;    C13-    S4-   C12-   C25
   302    303    304    305      9   180.00  15.16700   2 ;    C13-   C14-   C15-   C16
   302    303    304    329      9   180.00  15.16700   2 ;    C13-   C14-   C15-    H9
   302    314    313    305      9   180.00  15.16700   2 ;    C13-   C24-   C23-   C16
   302    314    313    335      9   180.00  15.16700   2 ;    C13-   C24-   C23-   H15
   303    302    314    313      9   180.00  15.16700   2 ;    C14-   C13-   C24-   C23
   303    302    314    336      9   180.00  15.16700   2 ;    C14-   C13-   C24-   H16
   303    304    305    306      9   180.00  15.16700   2 ;    C14-   C15-   C16-    S5
   303    304    305    313      9   180.00  15.16700   2 ;    C14-   C15-   C16-   C23
   304    303    302    314      9   180.00  15.16700   2 ;    C15-   C14-   C13-   C24
   304    305    306    307      9   180.00   1.67360   2 ;    C15-   C16-    S5-   C17
   304    305    313    314      9   180.00  15.16700   2 ;    C15-   C16-   C23-   C24
   304    305    313    335      9   180.00  15.16700   2 ;    C15-   C16-   C23-   H15
   305    304    303    328      9   180.00  15.16700   2 ;    C16-   C15-   C14-    H8
   305    306    307    308      9   180.00   1.67360   2 ;    C16-    S5-   C17-   C18
   305    306    307    312      9   180.00   1.67360   2 ;    C16-    S5-   C17-   C22
   305    313    314    336      9   180.00  15.16700   2 ;    C16-   C23-   C24-   H16
   306    305    304    329      9   180.00  15.16700   2 ;     S5-   C16-   C15-    H9
   306    305    313    314      9   180.00  15.16700   2 ;     S5-   C16-   C23-   C24
   306    305    313    335      9   180.00  15.16700   2 ;     S5-   C16-   C23-   H15
   306    307    308    309      9   180.00  15.16700   2 ;     S5-   C17-   C18-   C19
   306    307    308    330      9   180.00  15.16700   2 ;     S5-   C17-   C18-   H10
   306    307    312    311      9   180.00  15.16700   2 ;     S5-   C17-   C22-   C21
   306    307    312    334      9   180.00  15.16700   2 ;     S5-   C17-   C22-   H14
   307    306    305    313      9   180.00   1.67360   2 ;    C17-    S5-   C16-   C23
   307    308    309    310      9   180.00  15.16700   2 ;    C17-   C18-   C19-   C20
   307    308    309    331      9   180.00  15.16700   2 ;    C17-   C18-   C19-   H11
   307    312    311    310      9   180.00  15.16700   2 ;    C17-   C22-   C21-   C20
   307    312    311    333      9   180.00  15.16700   2 ;    C17-   C22-   C21-   H13
   308    307    312    311      9   180.00  15.16700   2 ;    C18-   C17-   C22-   C21
   308    307    312    334      9   180.00  15.16700   2 ;    C18-   C17-   C22-   H14
   308    309    310    311      9   180.00  15.16700   2 ;    C18-   C19-   C20-   C21
   308    309    310    332      9   180.00  15.16700   2 ;    C18-   C19-   C20-   H12
   309    308    307    312      9   180.00  15.16700   2 ;    C19-   C18-   C17-   C22
   309    310    311    312      9   180.00  15.16700   2 ;    C19-   C20-   C21-   C22
   309    310    311    333      9   180.00  15.16700   2 ;    C19-   C20-   C21-   H13
   310    309    308    330      9   180.00  15.16700   2 ;    C20-   C19-   C18-   H10
   310    311    312    334      9   180.00  15.16700   2 ;    C20-   C21-   C22-   H14
   311    310    309    331      9   180.00  15.16700   2 ;    C21-   C20-   C19-   H11
   312    307    308    330      9   180.00  15.16700   2 ;    C22-   C17-   C18-   H10
   312    311    310    332      9   180.00  15.16700   2 ;    C22-   C21-   C20-   H12
   313    305    304    329      9   180.00  15.16700   2 ;    C23-   C16-   C15-    H9
   314    302    303    328      9   180.00  15.16700   2 ;    C24-   C13-   C14-    H8
   315    300    299    327      9   180.00  15.16700   2 ;    C25-   C12-   C11-    H7
   316    297    298    326      9   180.00  15.16700   2 ;    C26-    C9-   C10-    H6
   317    295    294    325      9   180.00  15.16700   2 ;    C27-    C8-    C7-    H5
   318    292    293    324      9   180.00  15.16700   2 ;    C28-    C5-    C6-    H4
   319    290    289    323      9   180.00  15.16700   2 ;    C29-    C4-    C3-    H3
   320    287    286    321      9   180.00   0.48116   2 ;    C30-    C1-    S1-    H1
   320    287    288    322      9   180.00  15.16700   2 ;    C30-    C1-    C2-    H2
   322    288    289    323      9   180.00  15.16700   2 ;     H2-    C2-    C3-    H3
   324    293    294    325      9   180.00  15.16700   2 ;     H4-    C6-    C7-    H5
   326    298    299    327      9   180.00  15.16700   2 ;     H6-   C10-   C11-    H7
   328    303    304    329      9   180.00  15.16700   2 ;     H8-   C14-   C15-    H9
   330    308    309    331      9   180.00  15.16700   2 ;    H10-   C18-   C19-   H11
   331    309    310    332      9   180.00  15.16700   2 ;    H11-   C19-   C20-   H12
   332    310    311    333      9   180.00  15.16700   2 ;    H12-   C20-   C21-   H13
   333    311    312    334      9   180.00  15.16700   2 ;    H13-   C21-   C22-   H14
   335    313    314    336      9   180.00  15.16700   2 ;    H15-   C23-   C24-   H16
   337    315    316    338      9   180.00  15.16700   2 ;    H17-   C25-   C26-   H18
   339    317    318    340      9   180.00  15.16700   2 ;    H19-   C27-   C28-   H20
   341    319    320    342      9   180.00  15.16700   2 ;    H21-   C29-   C30-   H22
   343    344    345    346      9   180.00  15.16700   2 ;     S1-    C1-    C2-    C3
   343    344    345    379      9   180.00  15.16700   2 ;     S1-    C1-    C2-    H2
   343    344    377    376      9   180.00  15.16700   2 ;     S1-    C1-   C30-   C29
   343    344    377    399      9   180.00  15.16700   2 ;     S1-    C1-   C30-   H22
   344    345    346    347      9   180.00  15.16700   2 ;     C1-    C2-    C3-    C4
   344    345    346    380      9   180.00  15.16700   2 ;     C1-    C2-    C3-    H3
   344    377    376    347      9   180.00  15.16700   2 ;     C1-   C30-   C29-    C4
   344    377    376    398      9   180.00  15.16700   2 ;     C1-   C30-   C29-   H21
   345    344    343    378      9   180.00   0.48116   2 ;     C2-    C1-    S1-    H1
   345    344    377    376      9   180.00  15.16700   2 ;     C2-    C1-   C30-   C29
   345    344    377    399      9   180.00  15.16700   2 ;     C2-    C1-   C30-   H22
   345    346    347    348      9   180.00  15.16700   2 ;     C2-    C3-    C4-    S2
   345    346    347    376      9   180.00  15.16700   2 ;     C2-    C3-    C4-   C29
   346    345    344    377      9   180.00  15.16700   2 ;     C3-    C2-    C1-   C30
   346    347    348    349      9   180.00   1.67360   2 ;     C3-    C4-    S2-    C5
   346    347    376    377      9   180.00  15.16700   2 ;     C3-    C4-   C29-   C30
   346    347    376    398      9   180.00  15.16700   2 ;     C3-    C4-   C29-   H21
   347    346    345    379      9   180.00  15.16700   2 ;     C4-    C3-    C2-    H2
   347    348    349    350      9   180.00   1.67360   2 ;     C4-    S2-    C5-    C6
   347    348    349    375      9   180.00   1.67360   2 ;     C4-    S2-    C5-   C28
   347    376    377    399      9   180.00  15.16700   2 ;     C4-   C29-   C30-   H22
   348    347    346    380      9   180.00  15.16700   2 ;     S2-    C4-    C3-    H3
   348    347    376    377      9   180.00  15.16700   2 ;     S2-    C4-   C29-   C30
   348    347    376    398      9   180.00  15.16700   2 ;     S2-    C4-   C29-   H21
   348    349    350    351      9   180.00  15.16700   2 ;     S2-    C5-    C6-    C7
   348    349    350    381      9   180.00  15.16700   2 ;     S2-    C5-    C6-    H4
   348    349    375    374      9   180.00  15.16700   2 ;     S2-    C5-   C28-   C27
   348    349    375    397      9   180.00  15.16700   2 ;     S2-    C5-   C28-   H20
   349    348    347    376      9   180.00   1.67360   2 ;     C5-    S2-    C4-   C29
   349    350    351    352      9   180.00  15.16700   2 ;     C5-    C6-    C7-    C8
   349    350    351    382      9   180.00  15.16700   2 ;     C5-    C6-    C7-    H5
   349    375    374    352      9   180.00  15.16700   2 ;     C5-   C28-   C27-    C8
   349    375    374    396      9   180.00  15.16700   2 ;     C5-   C28-   C27-   H19
   350    349    375    374      9   180.00  15.16700   2 ;     C6-    C5-   C28-   C27
   350    349    375    397      9   180.00  15.16700   2 ;     C6-    C5-   C28-   H20
   350    351    352    353      9   180.00  15.16700   2 ;     C6-    C7-    C8-    S3
   350    351    352    374      9   180.00  15.16700   2 ;     C6-    C7-    C8-   C27
   351    350    349    375      9   180.00  15.16700   2 ;     C7-    C6-    C5-   C28
   351    352    353    354      9   180.00   1.67360   2 ;     C7-    C8-    S3-    C9
   351    352    374    375      9   180.00  15.16700   2 ;     C7-    C8-   C27-   C28
   351    352    374    396      9   180.00  15.16700   2 ;     C7-    C8-   C27-   H19
   352    351    350    381      9   180.00  15.16700   2 ;     C8-    C7-    C6-    H4
   352    353    354    355      9   180.00   1.67360   2 ;     C8-    S3-    C9-   C10
   352    353    354    373      9   180.00   1.67360   2 ;     C8-    S3-    C9-   C26
   352    374    375    397      9   180.00  15.16700   2 ;     C8-   C27-   C28-   H20
   353    352    351    382      9   180.00  15.16700   2 ;     S3-    C8-    C7-    H5
   353    352    374    375      9   180.00  15.16700   2 ;     S3-    C8-   C27-   C28
   353    352    374    396      9   180.00  15.16700   2 ;     S3-    C8-   C27-   H19
   353    354    355    356      9   180.00  15.16700   2 ;     S3-    C9-   C10-   C11
   353    354    355    383      9   180.00  15.16700   2 ;     S3-    C9-   C10-    H6
   353    354    373    372      9   180.00  15.16700   2 ;     S3-    C9-   C26-   C25
   353    354    373    395      9   180.00  15.16700   2 ;     S3-    C9-   C26-   H18
   354    353    352    374      9   180.00   1.67360   2 ;     C9-    S3-    C8-   C27
   354    355    356    357      9   180.00  15.16700   2 ;     C9-   C10-   C11-   C12
   354    355    356    384      9   180.00  15.16700   2 ;     C9-   C10-   C11-    H7
   354    373    372    357      9   180.00  15.16700   2 ;     C9-   C26-   C25-   C12
   354    373    372    394      9   180.00  15.16700   2 ;     C9-   C26-   C25-   H17
   355    354    373    372      9   180.00  15.16700   2 ;    C10-    C9-   C26-   C25
   355    354    373    395      9   180.00  15.16700   2 ;    C10-    C9-   C26-   H18
   355    356    357    358      9   180.00  15.16700   2 ;    C10-   C11-   C12-    S4
   355    356    357    372      9   180.00  15.16700   2 ;    C10-   C11-   C12-   C25
   356    355    354    373      9   180.00  15.16700   2 ;    C11-   C10-    C9-   C26
   356    357    358    359      9   180.00   1.67360   2 ;    C11-   C12-    S4-   C13
   356    357    372    373      9   180.00  15.16700   2 ;    C11-   C12-   C25-   C26
   356    357    372    394      9   180.00  15.16700   2 ;    C11-   C12-   C25-   H17
   357    356    355    383      9   180.00  15.16700   2 ;    C12-   C11-   C10-    H6
   357    358    359    360      9   180.00   1.67360   2 ;    C12-    S4-   C13-   C14
   357    358    359    371      9   180.00   1.67360   2 ;    C12-    S4-   C13-   C24
   357    372    373    395      9   180.00  15.16700   2 ;    C12-   C25-   C26-   H18
   358    357    356    384      9   180.00  15.16700   2 ;     S4-   C12-   C11-    H7
   358    357    372    373      9   180.00  15.16700   2 ;     S4-   C12-   C25-   C26
   358    357    372    394      9   180.00  15.16700   2 ;     S4-   C12-   C25-   H17
   358    359    360    361      9   180.00  15.16700   2 ;     S4-   C13-   C14-   C15
   358    359    360    385      9   180.00  15.16700   2 ;     S4-   C13-   C14-    H8
   358    359    371    370      9   180.00  15.16700   2 ;     S4-   C13-   C24-   C23
   358    359    371    393      9   180.00  15.16700   2 ;     S4-   C13-   C24-   H16
   359    358    357    372      9   180.00   1.67360   2 ;    C13-    S4-   C12-   C25
   359    360    361    362      9   180.00  15.16700   2 ;    C13-   C14-   C15-   C16
   359    360    361    386      9   180.00  15.16700   2 ;    C13-   C14-   C15-    H9
   359    371    370    362      9   180.00  15.16700   2 ;    C13-   C24-   C23-   C16
   359    371    370    392      9   180.00  15.16700   2 ;    C13-   C24-   C23-   H15
   360    359    371    370      9   180.00  15.16700   2 ;    C14-   C13-   C24-   C23
   360    359    371    393      9   180.00  15.16700   2 ;    C14-   C13-   C24-   H16
   360    361    362    363      9   180.00  15.16700   2 ;    C14-   C15-   C16-    S5
   360    361    362    370      9   180.00  15.16700   2 ;    C14-   C15-   C16-   C23
   361    360    359    371      9   180.00  15.16700   2 ;    C15-   C14-   C13-   C24
   361    362    363    364      9   180.00   1.67360   2 ;    C15-   C16-    S5-   C17
   361    362    370    371      9   180.00  15.16700   2 ;    C15-   C16-   C23-   C24
   361    362    370    392      9   180.00  15.16700   2 ;    C15-   C16-   C23-   H15
   362    361    360    385      9   180.00  15.16700   2 ;    C16-   C15-   C14-    H8
   362    363    364    365      9   180.00   1.67360   2 ;    C16-    S5-   C17-   C18
   362    363    364    369      9   180.00   1.67360   2 ;    C16-    S5-   C17-   C22
   362    370    371    393      9   180.00  15.16700   2 ;    C16-   C23-   C24-   H16
   363    362    361    386      9   180.00  15.16700   2 ;     S5-   C16-   C15-    H9
   363    362    370    371      9   180.00  15.16700   2 ;     S5-   C16-   C23-   C24
   363    362    370    392      9   180.00  15.16700   2 ;     S5-   C16-   C23-   H15
   363    364    365    366      9   180.00  15.16700   2 ;     S5-   C17-   C18-   C19
   363    364    365    387      9   180.00  15.16700   2 ;     S5-   C17-   C18-   H10
   363    364    369    368      9   180.00  15.16700   2 ;     S5-   C17-   C22-   C21
   363    364    369    391      9   180.00  15.16700   2 ;     S5-   C17-   C22-   H14
   364    363    362    370      9   180.00   1.67360   2 ;    C17-    S5-   C16-   C23
   364    365    366    367      9   180.00  15.16700   2 ;    C17-   C18-   C19-   C20
   364    365    366    388      9   180.00  15.16700   2 ;    C17-   C18-   C19-   H11
   364    369    368    367      9   180.00  15.16700   2 ;    C17-   C22-   C21-   C20
   364    369    368    390      9   180.00  15.16700   2 ;    C17-   C22-   C21-   H13
   365    364    369    368      9   180.00  15.16700   2 ;    C18-   C17-   C22-   C21
   365    364    369    391      9   180.00  15.16700   2 ;    C18-   C17-   C22-   H14
   365    366    367    368      9   180.00  15.16700   2 ;    C18-   C19-   C20-   C21
   365    366    367    389      9   180.00  15.16700   2 ;    C18-   C19-   C20-   H12
   366    365    364    369      9   180.00  15.16700   2 ;    C19-   C18-   C17-   C22
   366    367    368    369      9   180.00  15.16700   2 ;    C19-   C20-   C21-   C22
   366    367    368    390      9   180.00  15.16700   2 ;    C19-   C20-   C21-   H13
   367    366    365    387      9   180.00  15.16700   2 ;    C20-   C19-   C18-   H10
   367    368    369    391      9   180.00  15.16700   2 ;    C20-   C21-   C22-   H14
   368    367    366    388      9   180.00  15.16700   2 ;    C21-   C20-   C19-   H11
   369    364    365    387      9   180.00  15.16700   2 ;    C22-   C17-   C18-   H10
   369    368    367    389      9   180.00  15.16700   2 ;    C22-   C21-   C20-   H12
   370    362    361    386      9   180.00  15.16700   2 ;    C23-   C16-   C15-    H9
   371    359    360    385      9   180.00  15.16700   2 ;    C24-   C13-   C14-    H8
   372    357    356    384      9   180.00  15.16700   2 ;    C25-   C12-   C11-    H7
   373    354    355    383      9   180.00  15.16700   2 ;    C26-    C9-   C10-    H6
   374    352    351    382      9   180.00  15.16700   2 ;    C27-    C8-    C7-    H5
   375    349    350    381      9   180.00  15.16700   2 ;    C28-    C5-    C6-    H4
   376    347    346    380      9   180.00  15.16700   2 ;    C29-    C4-    C3-    H3
   377    344    343    378      9   180.00   0.48116   2 ;    C30-    C1-    S1-    H1
   377    344    345    379      9   180.00  15.16700   2 ;    C30-    C1-    C2-    H2
   379    345    346    380      9   180.00  15.16700   2 ;     H2-    C2-    C3-    H3
   381    350    351    382      9   180.00  15.16700   2 ;     H4-    C6-    C7-    H5
   383    355    356    384      9   180.00  15.16700   2 ;     H6-   C10-   C11-    H7
   385    360    361    386      9   180.00  15.16700   2 ;     H8-   C14-   C15-    H9
   387    365    366    388      9   180.00  15.16700   2 ;    H10-   C18-   C19-   H11
   388    366    367    389      9   180.00  15.16700   2 ;    H11-   C19-   C20-   H12
   389    367    368    390      9   180.00  15.16700   2 ;    H12-   C20-   C21-   H13
   390    368    369    391      9   180.00  15.16700   2 ;    H13-   C21-   C22-   H14
   392    370    371    393      9   180.00  15.16700   2 ;    H15-   C23-   C24-   H16
   394    372    373    395      9   180.00  15.16700   2 ;    H17-   C25-   C26-   H18
   396    374    375    397      9   180.00  15.16700   2 ;    H19-   C27-   C28-   H20
   398    376    377    399      9   180.00  15.16700   2 ;    H21-   C29-   C30-   H22
   400    401    402    403      9   180.00  15.16700   2 ;     S1-    C1-    C2-    C3
   400    401    402    436      9   180.00  15.16700   2 ;     S1-    C1-    C2-    H2
   400    401    434    433      9   180.00  15.16700   2 ;     S1-    C1-   C30-   C29
   400    401    434    456      9   180.00  15.16700   2 ;     S1-    C1-   C30-   H22
   401    402    403    404      9   180.00  15.16700   2 ;     C1-    C2-    C3-    C4
   401    402    403    437      9   180.00  15.16700   2 ;     C1-    C2-    C3-    H3
   401    434    433    404      9   180.00  15.16700   2 ;     C1-   C30-   C29-    C4
   401    434    433    455      9   180.00  15.16700   2 ;     C1-   C30-   C29-   H21
   402    401    400    435      9   180.00   0.48116   2 ;     C2-    C1-    S1-    H1
   402    401    434    433      9   180.00  15.16700   2 ;     C2-    C1-   C30-   C29
   402    401    434    456      9   180.00  15.16700   2 ;     C2-    C1-   C30-   H22
   402    403    404    405      9   180.00  15.16700   2 ;     C2-    C3-    C4-    S2
   402    403    404    433      9   180.00  15.16700   2 ;     C2-    C3-    C4-   C29
   403    402    401    434      9   180.00  15.16700   2 ;     C3-    C2-    C1-   C30
   403    404    405    406      9   180.00   1.67360   2 ;     C3-    C4-    S2-    C5
   403    404    433    434      9   180.00  15.16700   2 ;     C3-    C4-   C29-   C30
   403    404    433    455      9   180.00  15.16700   2 ;     C3-    C4-   C29-   H21
   404    403    402    436      9   180.00  15.16700   2 ;     C4-    C3-    C2-    H2
   404    405    406    407      9   180.00   1.67360   2 ;     C4-    S2-    C5-    C6
   404    405    406    432      9   180.00   1.67360   2 ;     C4-    S2-    C5-   C28
   404    433    434    456      9   180.00  15.16700   2 ;     C4-   C29-   C30-   H22
   405    404    403    437      9   180.00  15.16700   2 ;     S2-    C4-    C3-    H3
   405    404    433    434      9   180.00  15.16700   2 ;     S2-    C4-   C29-   C30
   405    404    433    455      9   180.00  15.16700   2 ;     S2-    C4-   C29-   H21
   405    406    407    408      9   180.00  15.16700   2 ;     S2-    C5-    C6-    C7
   405    406    407    438      9   180.00  15.16700   2 ;     S2-    C5-    C6-    H4
   405    406    432    431      9   180.00  15.16700   2 ;     S2-    C5-   C28-   C27
   405    406    432    454      9   180.00  15.16700   2 ;     S2-    C5-   C28-   H20
   406    405    404    433      9   180.00   1.67360   2 ;     C5-    S2-    C4-   C29
   406    407    408    409      9   180.00  15.16700   2 ;     C5-    C6-    C7-    C8
   406    407    408    439      9   180.00  15.16700   2 ;     C5-    C6-    C7-    H5
   406    432    431    409      9   180.00  15.16700   2 ;     C5-   C28-   C27-    C8
   406    432    431    453      9   180.00  15.16700   2 ;     C5-   C28-   C27-   H19
   407    406    432    431      9   180.00  15.16700   2 ;     C6-    C5-   C28-   C27
   407    406    432    454      9   180.00  15.16700   2 ;     C6-    C5-   C28-   H20
   407    408    409    410      9   180.00  15.16700   2 ;     C6-    C7-    C8-    S3
   407    408    409    431      9   180.00  15.16700   2 ;     C6-    C7-    C8-   C27
   408    407    406    432      9   180.00  15.16700   2 ;     C7-    C6-    C5-   C28
   408    409    410    411      9   180.00   1.67360   2 ;     C7-    C8-    S3-    C9
   408    409    431    432      9   180.00  15.16700   2 ;     C7-    C8-   C27-   C28
   408    409    431    453      9   180.00  15.16700   2 ;     C7-    C8-   C27-   H19
   409    408    407    438      9   180.00  15.16700   2 ;     C8-    C7-    C6-    H4
   409    410    411    412      9   180.00   1.67360   2 ;     C8-    S3-    C9-   C10
   409    410    411    430      9   180.00   1.67360   2 ;     C8-    S3-    C9-   C26
   409    431    432    454      9   180.00  15.16700   2 ;     C8-   C27-   C28-   H20
   410    409    408    439      9   180.00  15.16700   2 ;     S3-    C8-    C7-    H5
   410    409    431    432      9   180.00  15.16700   2 ;     S3-    C8-   C27-   C28
   410    409    431    453      9   180.00  15.16700   2 ;     S3-    C8-   C27-   H19
   410    411    412    413      9   180.00  15.16700   2 ;     S3-    C9-   C10-   C11
   410    411    412    440      9   180.00  15.16700   2 ;     S3-    C9-   C10-    H6
   410    411    430    429      9   180.00  15.16700   2 ;     S3-    C9-   C26-   C25
   410    411    430    452      9   180.00  15.16700   2 ;     S3-    C9-   C26-   H18
   411    410    409    431      9   180.00   1.67360   2 ;     C9-    S3-    C8-   C27
   411    412    413    414      9   180.00  15.16700   2 ;     C9-   C10-   C11-   C12
   411    412    413    441      9   180.00  15.16700   2 ;     C9-   C10-   C11-    H7
   411    430    429    414      9   180.00  15.16700   2 ;     C9-   C26-   C25-   C12
   411    430    429    451      9   180.00  15.16700   2 ;     C9-   C26-   C25-   H17
   412    411    430    429      9   180.00  15.16700   2 ;    C10-    C9-   C26-   C25
   412    411    430    452      9   180.00  15.16700   2 ;    C10-    C9-   C26-   H18
   412    413    414    415      9   180.00  15.16700   2 ;    C10-   C11-   C12-    S4
   412    413    414    429      9   180.00  15.16700   2 ;    C10-   C11-   C12-   C25
   413    412    411    430      9   180.00  15.16700   2 ;    C11-   C10-    C9-   C26
   413    414    415    416      9   180.00   1.67360   2 ;    C11-   C12-    S4-   C13
   413    414    429    430      9   180.00  15.16700   2 ;    C11-   C12-   C25-   C26
   413    414    429    451      9   180.00  15.16700   2 ;    C11-   C12-   C25-   H17
   414    413    412    440      9   180.00  15.16700   2 ;    C12-   C11-   C10-    H6
   414    415    416    417      9   180.00   1.67360   2 ;    C12-    S4-   C13-   C14
   414    415    416    428      9   180.00   1.67360   2 ;    C12-    S4-   C13-   C24
   414    429    430    452      9   180.00  15.16700   2 ;    C12-   C25-   C26-   H18
   415    414    413    441      9   180.00  15.16700   2 ;     S4-   C12-   C11-    H7
   415    414    429    430      9   180.00  15.16700   2 ;     S4-   C12-   C25-   C26
   415    414    429    451      9   180.00  15.16700   2 ;     S4-   C12-   C25-   H17
   415    416    417    418      9   180.00  15.16700   2 ;     S4-   C13-   C14-   C15
   415    416    417    442      9   180.00  15.16700   2 ;     S4-   C13-   C14-    H8
   415    416    428    427      9   180.00  15.16700   2 ;     S4-   C13-   C24-   C23
   415    416    428    450      9   180.00  15.16700   2 ;     S4-   C13-   C24-   H16
   416    415    414    429      9   180.00   1.67360   2 ;    C13-    S4-   C12-   C25
   416    417    418    419      9   180.00  15.16700   2 ;    C13-   C14-   C15-   C16
   416    417    418    443      9   180.00  15.16700   2 ;    C13-   C14-   C15-    H9
   416    428    427    419      9   180.00  15.16700   2 ;    C13-   C24-   C23-   C16
   416    428    427    449      9   180.00  15.16700   2 ;    C13-   C24-   C23-   H15
   417    416    428    427      9   180.00  15.16700   2 ;    C14-   C13-   C24-   C23
   417    416    428    450      9   180.00  15.16700   2 ;    C14-   C13-   C24-   H16
   417    418    419    420      9   180.00  15.16700   2 ;    C14-   C15-   C16-    S5
   417    418    419    427      9   180.00  15.16700   2 ;    C14-   C15-   C16-   C23
   418    417    416    428      9   180.00  15.16700   2 ;    C15-   C14-   C13-   C24
   418    419    420    421      9   180.00   1.67360   2 ;    C15-   C16-    S5-   C17
   418    419    427    428      9   180.00  15.16700   2 ;    C15-   C16-   C23-   C24
   418    419    427    449      9   180.00  15.16700   2 ;    C15-   C16-   C23-   H15
   419    418    417    442      9   180.00  15.16700   2 ;    C16-   C15-   C14-    H8
   419    420    421    422      9   180.00   1.67360   2 ;    C16-    S5-   C17-   C18
   419    420    421    426      9   180.00   1.67360   2 ;    C16-    S5-   C17-   C22
   419    427    428    450      9   180.00  15.16700   2 ;    C16-   C23-   C24-   H16
   420    419    418    443      9   180.00  15.16700   2 ;     S5-   C16-   C15-    H9
   420    419    427    428      9   180.00  15.16700   2 ;     S5-   C16-   C23-   C24
   420    419    427    449      9   180.00  15.16700   2 ;     S5-   C16-   C23-   H15
   420    421    422    423      9   180.00  15.16700   2 ;     S5-   C17-   C18-   C19
   420    421    422    444      9   180.00  15.16700   2 ;     S5-   C17-   C18-   H10
   420    421    426    425      9   180.00  15.16700   2 ;     S5-   C17-   C22-   C21
   420    421    426    448      9   180.00  15.16700   2 ;     S5-   C17-   C22-   H14
   421    420    419    427      9   180.00   1.67360   2 ;    C17-    S5-   C16-   C23
   421    422    423    424      9   180.00  15.16700   2 ;    C17-   C18-   C19-   C20
   421    422    423    445      9   180.00  15.16700   2 ;    C17-   C18-   C19-   H11
   421    426    425    424      9   180.00  15.16700   2 ;    C17-   C22-   C21-   C20
   421    426    425    447      9   180.00  15.16700   2 ;    C17-   C22-   C21-   H13
   422    421    426    425      9   180.00  15.16700   2 ;    C18-   C17-   C22-   C21
   422    421    426    448      9   180.00  15.16700   2 ;    C18-   C17-   C22-   H14
   422    423    424    425      9   180.00  15.16700   2 ;    C18-   C19-   C20-   C21
   422    423    424    446      9   180.00  15.16700   2 ;    C18-   C19-   C20-   H12
   423    422    421    426      9   180.00  15.16700   2 ;    C19-   C18-   C17-   C22
   423    424    425    426      9   180.00  15.16700   2 ;    C19-   C20-   C21-   C22
   423    424    425    447      9   180.00  15.16700   2 ;    C19-   C20-   C21-   H13
   424    423    422    444      9   180.00  15.16700   2 ;    C20-   C19-   C18-   H10
   424    425    426    448      9   180.00  15.16700   2 ;    C20-   C21-   C22-   H14
   425    424    423    445      9   180.00  15.16700   2 ;    C21-   C20-   C19-   H11
   426    421    422    444      9   180.00  15.16700   2 ;    C22-   C17-   C18-   H10
   426    425    424    446      9   180.00  15.16700   2 ;    C22-   C21-   C20-   H12
   427    419    418    443      9   180.00  15.16700   2 ;    C23-   C16-   C15-    H9
   428    416    417    442      9   180.00  15.16700   2 ;    C24-   C13-   C14-    H8
   429    414    413    441      9   180.00  15.16700   2 ;    C25-   C12-   C11-    H7
   430    411    412    440      9   180.00  15.16700   2 ;    C26-    C9-   C10-    H6
   431    409    408    439      9   180.00  15.16700   2 ;    C27-    C8-    C7-    H5
   432    406    407    438      9   180.00  15.16700   2 ;    C28-    C5-    C6-    H4
   433    404    403    437      9   180.00  15.16700   2 ;    C29-    C4-    C3-    H3
   434    401    400    435      9   180.00   0.48116   2 ;    C30-    C1-    S1-    H1
   434    401    402    436      9   180.00  15.16700   2 ;    C30-    C1-    C2-    H2
   436    402    403    437      9   180.00  15.16700   2 ;     H2-    C2-    C3-    H3
   438    407    408    439      9   180.00  15.16700   2 ;     H4-    C6-    C7-    H5
   440    412    413    441      9   180.00  15.16700   2 ;     H6-   C10-   C11-    H7
   442    417    418    443      9   180.00  15.16700   2 ;     H8-   C14-   C15-    H9
   444    422    423    445      9   180.00  15.16700   2 ;    H10-   C18-   C19-   H11
   445    423    424    446      9   180.00  15.16700   2 ;    H11-   C19-   C20-   H12
   446    424    425    447      9   180.00  15.16700   2 ;    H12-   C20-   C21-   H13
   447    425    426    448      9   180.00  15.16700   2 ;    H13-   C21-   C22-   H14
   449    427    428    450      9   180.00  15.16700   2 ;    H15-   C23-   C24-   H16
   451    429    430    452      9   180.00  15.16700   2 ;    H17-   C25-   C26-   H18
   453    431    432    454      9   180.00  15.16700   2 ;    H19-   C27-   C28-   H20
   455    433    434    456      9   180.00  15.16700   2 ;    H21-   C29-   C30-   H22
   457    458    459    460      9   180.00  15.16700   2 ;     S1-    C1-    C2-    C3
   457    458    459    493      9   180.00  15.16700   2 ;     S1-    C1-    C2-    H2
   457    458    491    490      9   180.00  15.16700   2 ;     S1-    C1-   C30-   C29
   457    458    491    513      9   180.00  15.16700   2 ;     S1-    C1-   C30-   H22
   458    459    460    461      9   180.00  15.16700   2 ;     C1-    C2-    C3-    C4
   458    459    460    494      9   180.00  15.16700   2 ;     C1-    C2-    C3-    H3
   458    491    490    461      9   180.00  15.16700   2 ;     C1-   C30-   C29-    C4
   458    491    490    512      9   180.00  15.16700   2 ;     C1-   C30-   C29-   H21
   459    458    457    492      9   180.00   0.48116   2 ;     C2-    C1-    S1-    H1
   459    458    491    490      9   180.00  15.16700   2 ;     C2-    C1-   C30-   C29
   459    458    491    513      9   180.00  15.16700   2 ;     C2-    C1-   C30-   H22
   459    460    461    462      9   180.00  15.16700   2 ;     C2-    C3-    C4-    S2
   459    460    461    490      9   180.00  15.16700   2 ;     C2-    C3-    C4-   C29
   460    459    458    491      9   180.00  15.16700   2 ;     C3-    C2-    C1-   C30
   460    461    462    463      9   180.00   1.67360   2 ;     C3-    C4-    S2-    C5
   460    461    490    491      9   180.00  15.16700   2 ;     C3-    C4-   C29-   C30
   460    461    490    512      9   180.00  15.16700   2 ;     C3-    C4-   C29-   H21
   461    460    459    493      9   180.00  15.16700   2 ;     C4-    C3-    C2-    H2
   461    462    463    464      9   180.00   1.67360   2 ;     C4-    S2-    C5-    C6
   461    462    463    489      9   180.00   1.67360   2 ;     C4-    S2-    C5-   C28
   461    490    491    513      9   180.00  15.16700   2 ;     C4-   C29-   C30-   H22
   462    461    460    494      9   180.00  15.16700   2 ;     S2-    C4-    C3-    H3
   462    461    490    491      9   180.00  15.16700   2 ;     S2-    C4-   C29-   C30
   462    461    490    512      9   180.00  15.16700   2 ;     S2-    C4-   C29-   H21
   462    463    464    465      9   180.00  15.16700   2 ;     S2-    C5-    C6-    C7
   462    463    464    495      9   180.00  15.16700   2 ;     S2-    C5-    C6-    H4
   462    463    489    488      9   180.00  15.16700   2 ;     S2-    C5-   C28-   C27
   462    463    489    511      9   180.00  15.16700   2 ;     S2-    C5-   C28-   H20
   463    462    461    490      9   180.00   1.67360   2 ;     C5-    S2-    C4-   C29
   463    464    465    466      9   180.00  15.16700   2 ;     C5-    C6-    C7-    C8
   463    464    465    496      9   180.00  15.16700   2 ;     C5-    C6-    C7-    H5
   463    489    488    466      9   180.00  15.16700   2 ;     C5-   C28-   C27-    C8
   463    489    488    510      9   180.00  15.16700   2 ;     C5-   C28-   C27-   H19
   464    463    489    488      9   180.00  15.16700   2 ;     C6-    C5-   C28-   C27
   464    463    489    511      9   180.00  15.16700   2 ;     C6-    C5-   C28-   H20
   464    465    466    467      9   180.00  15.16700   2 ;     C6-    C7-    C8-    S3
   464    465    466    488      9   180.00  15.16700   2 ;     C6-    C7-    C8-   C27
   465    464    463    489      9   180.00  15.16700   2 ;     C7-    C6-    C5-   C28
   465    466    467    468      9   180.00   1.67360   2 ;     C7-    C8-    S3-    C9
   465    466    488    489      9   180.00  15.16700   2 ;     C7-    C8-   C27-   C28
   465    466    488    510      9   180.00  15.16700   2 ;     C7-    C8-   C27-   H19
   466    465    464    495      9   180.00  15.16700   2 ;     C8-    C7-    C6-    H4
   466    467    468    469      9   180.00   1.67360   2 ;     C8-    S3-    C9-   C10
   466    467    468    487      9   180.00   1.67360   2 ;     C8-    S3-    C9-   C26
   466    488    489    511      9   180.00  15.16700   2 ;     C8-   C27-   C28-   H20
   467    466    465    496      9   180.00  15.16700   2 ;     S3-    C8-    C7-    H5
   467    466    488    489      9   180.00  15.16700   2 ;     S3-    C8-   C27-   C28
   467    466    488    510      9   180.00  15.16700   2 ;     S3-    C8-   C27-   H19
   467    468    469    470      9   180.00  15.16700   2 ;     S3-    C9-   C10-   C11
   467    468    469    497      9   180.00  15.16700   2 ;     S3-    C9-   C10-    H6
   467    468    487    486      9   180.00  15.16700   2 ;     S3-    C9-   C26-   C25
   467    468    487    509      9   180.00  15.16700   2 ;     S3-    C9-   C26-   H18
   468    467    466    488      9   180.00   1.67360   2 ;     C9-    S3-    C8-   C27
   468    469    470    471      9   180.00  15.16700   2 ;     C9-   C10-   C11-   C12
   468    469    470    498      9   180.00  15.16700   2 ;     C9-   C10-   C11-    H7
   468    487    486    471      9   180.00  15.16700   2 ;     C9-   C26-   C25-   C12
   468    487    486    508      9   180.00  15.16700   2 ;     C9-   C26-   C25-   H17
   469    468    487    486      9   180.00  15.16700   2 ;    C10-    C9-   C26-   C25
   469    468    487    509      9   180.00  15.16700   2 ;    C10-    C9-   C26-   H18
   469    470    471    472      9   180.00  15.16700   2 ;    C10-   C11-   C12-    S4
   469    470    471    486      9   180.00  15.16700   2 ;    C10-   C11-   C12-   C25
   470    469    468    487      9   180.00  15.16700   2 ;    C11-   C10-    C9-   C26
   470    471    472    473      9   180.00   1.67360   2 ;    C11-   C12-    S4-   C13
   470    471    486    487      9   180.00  15.16700   2 ;    C11-   C12-   C25-   C26
   470    471    486    508      9   180.00  15.16700   2 ;    C11-   C12-   C25-   H17
   471    470    469    497      9   180.00  15.16700   2 ;    C12-   C11-   C10-    H6
   471    472    473    474      9   180.00   1.67360   2 ;    C12-    S4-   C13-   C14
   471    472    473    485      9   180.00   1.67360   2 ;    C12-    S4-   C13-   C24
   471    486    487    509      9   180.00  15.16700   2 ;    C12-   C25-   C26-   H18
   472    471    470    498      9   180.00  15.16700   2 ;     S4-   C12-   C11-    H7
   472    471    486    487      9   180.00  15.16700   2 ;     S4-   C12-   C25-   C26
   472    471    486    508      9   180.00  15.16700   2 ;     S4-   C12-   C25-   H17
   472    473    474    475      9   180.00  15.16700   2 ;     S4-   C13-   C14-   C15
   472    473    474    499      9   180.00  15.16700   2 ;     S4-   C13-   C14-    H8
   472    473    485    484      9   180.00  15.16700   2 ;     S4-   C13-   C24-   C23
   472    473    485    507      9   180.00  15.16700   2 ;     S4-   C13-   C24-   H16
   473    472    471    486      9   180.00   1.67360   2 ;    C13-    S4-   C12-   C25
   473    474    475    476      9   180.00  15.16700   2 ;    C13-   C14-   C15-   C16
   473    474    475    500      9   180.00  15.16700   2 ;    C13-   C14-   C15-    H9
   473    485    484    476      9   180.00  15.16700   2 ;    C13-   C24-   C23-   C16
   473    485    484    506      9   180.00  15.16700   2 ;    C13-   C24-   C23-   H15
   474    473    485    484      9   180.00  15.16700   2 ;    C14-   C13-   C24-   C23
   474    473    485    507      9   180.00  15.16700   2 ;    C14-   C13-   C24-   H16
   474    475    476    477      9   180.00  15.16700   2 ;    C14-   C15-   C16-    S5
   474    475    476    484      9   180.00  15.16700   2 ;    C14-   C15-   C16-   C23
   475    474    473    485      9   180.00  15.16700   2 ;    C15-   C14-   C13-   C24
   475    476    477    478      9   180.00   1.67360   2 ;    C15-   C16-    S5-   C17
   475    476    484    485      9   180.00  15.16700   2 ;    C15-   C16-   C23-   C24
   475    476    484    506      9   180.00  15.16700   2 ;    C15-   C16-   C23-   H15
   476    475    474    499      9   180.00  15.16700   2 ;    C16-   C15-   C14-    H8
   476    477    478    479      9   180.00   1.67360   2 ;    C16-    S5-   C17-   C18
   476    477    478    483      9   180.00   1.67360   2 ;    C16-    S5-   C17-   C22
   476    484    485    507      9   180.00  15.16700   2 ;    C16-   C23-   C24-   H16
   477    476    475    500      9   180.00  15.16700   2 ;     S5-   C16-   C15-    H9
   477    476    484    485      9   180.00  15.16700   2 ;     S5-   C16-   C23-   C24
   477    476    484    506      9   180.00  15.16700   2 ;     S5-   C16-   C23-   H15
   477    478    479    480      9   180.00  15.16700   2 ;     S5-   C17-   C18-   C19
   477    478    479    501      9   180.00  15.16700   2 ;     S5-   C17-   C18-   H10
   477    478    483    482      9   180.00  15.16700   2 ;     S5-   C17-   C22-   C21
   477    478    483    505      9   180.00  15.16700   2 ;     S5-   C17-   C22-   H14
   478    477    476    484      9   180.00   1.67360   2 ;    C17-    S5-   C16-   C23
   478    479    480    481      9   180.00  15.16700   2 ;    C17-   C18-   C19-   C20
   478    479    480    502      9   180.00  15.16700   2 ;    C17-   C18-   C19-   H11
   478    483    482    481      9   180.00  15.16700   2 ;    C17-   C22-   C21-   C20
   478    483    482    504      9   180.00  15.16700   2 ;    C17-   C22-   C21-   H13
   479    478    483    482      9   180.00  15.16700   2 ;    C18-   C17-   C22-   C21
   479    478    483    505      9   180.00  15.16700   2 ;    C18-   C17-   C22-   H14
   479    480    481    482      9   180.00  15.16700   2 ;    C18-   C19-   C20-   C21
   479    480    481    503      9   180.00  15.16700   2 ;    C18-   C19-   C20-   H12
   480    479    478    483      9   180.00  15.16700   2 ;    C19-   C18-   C17-   C22
   480    481    482    483      9   180.00  15.16700   2 ;    C19-   C20-   C21-   C22
   480    481    482    504      9   180.00  15.16700   2 ;    C19-   C20-   C21-   H13
   481    480    479    501      9   180.00  15.16700   2 ;    C20-   C19-   C18-   H10
   481    482    483    505      9   180.00  15.16700   2 ;    C20-   C21-   C22-   H14
   482    481    480    502      9   180.00  15.16700   2 ;    C21-   C20-   C19-   H11
   483    478    479    501      9   180.00  15.16700   2 ;    C22-   C17-   C18-   H10
   483    482    481    503      9   180.00  15.16700   2 ;    C22-   C21-   C20-   H12
   484    476    475    500      9   180.00  15.16700   2 ;    C23-   C16-   C15-    H9
   485    473    474    499      9   180.00  15.16700   2 ;    C24-   C13-   C14-    H8
   486    471    470    498      9   180.00  15.16700   2 ;    C25-   C12-   C11-    H7
   487    468    469    497      9   180.00  15.16700   2 ;    C26-    C9-   C10-    H6
   488    466    465    496      9   180.00  15.16700   2 ;    C27-    C8-    C7-    H5
   489    463    464    495      9   180.00  15.16700   2 ;    C28-    C5-    C6-    H4
   490    461    460    494      9   180.00  15.16700   2 ;    C29-    C4-    C3-    H3
   491    458    457    492      9   180.00   0.48116   2 ;    C30-    C1-    S1-    H1
   491    458    459    493      9   180.00  15.16700   2 ;    C30-    C1-    C2-    H2
   493    459    460    494      9   180.00  15.16700   2 ;     H2-    C2-    C3-    H3
   495    464    465    496      9   180.00  15.16700   2 ;     H4-    C6-    C7-    H5
   497    469    470    498      9   180.00  15.16700   2 ;     H6-   C10-   C11-    H7
   499    474    475    500      9   180.00  15.16700   2 ;     H8-   C14-   C15-    H9
   501    479    480    502      9   180.00  15.16700   2 ;    H10-   C18-   C19-   H11
   502    480    481    503      9   180.00  15.16700   2 ;    H11-   C19-   C20-   H12
   503    481    482    504      9   180.00  15.16700   2 ;    H12-   C20-   C21-   H13
   504    482    483    505      9   180.00  15.16700   2 ;    H13-   C21-   C22-   H14
   506    484    485    507      9   180.00  15.16700   2 ;    H15-   C23-   C24-   H16
   508    486    487    509      9   180.00  15.16700   2 ;    H17-   C25-   C26-   H18
   510    488    489    511      9   180.00  15.16700   2 ;    H19-   C27-   C28-   H20
   512    490    491    513      9   180.00  15.16700   2 ;    H21-   C29-   C30-   H22
   514    515    516    517      9   180.00  15.16700   2 ;     S1-    C1-    C2-    C3
   514    515    516    550      9   180.00  15.16700   2 ;     S1-    C1-    C2-    H2
   514    515    548    547      9   180.00  15.16700   2 ;     S1-    C1-   C30-   C29
   514    515    548    570      9   180.00  15.16700   2 ;     S1-    C1-   C30-   H22
   515    516    517    518      9   180.00  15.16700   2 ;     C1-    C2-    C3-    C4
   515    516    517    551      9   180.00  15.16700   2 ;     C1-    C2-    C3-    H3
   515    548    547    518      9   180.00  15.16700   2 ;     C1-   C30-   C29-    C4
   515    548    547    569      9   180.00  15.16700   2 ;     C1-   C30-   C29-   H21
   516    515    514    549      9   180.00   0.48116   2 ;     C2-    C1-    S1-    H1
   516    515    548    547      9   180.00  15.16700   2 ;     C2-    C1-   C30-   C29
   516    515    548    570      9   180.00  15.16700   2 ;     C2-    C1-   C30-   H22
   516    517    518    519      9   180.00  15.16700   2 ;     C2-    C3-    C4-    S2
   516    517    518    547      9   180.00  15.16700   2 ;     C2-    C3-    C4-   C29
   517    516    515    548      9   180.00  15.16700   2 ;     C3-    C2-    C1-   C30
   517    518    519    520      9   180.00   1.67360   2 ;     C3-    C4-    S2-    C5
   517    518    547    548      9   180.00  15.16700   2 ;     C3-    C4-   C29-   C30
   517    518    547    569      9   180.00  15.16700   2 ;     C3-    C4-   C29-   H21
   518    517    516    550      9   180.00  15.16700   2 ;     C4-    C3-    C2-    H2
   518    519    520    521      9   180.00   1.67360   2 ;     C4-    S2-    C5-    C6
   518    519    520    546      9   180.00   1.67360   2 ;     C4-    S2-    C5-   C28
   518    547    548    570      9   180.00  15.16700   2 ;     C4-   C29-   C30-   H22
   519    518    517    551      9   180.00  15.16700   2 ;     S2-    C4-    C3-    H3
   519    518    547    548      9   180.00  15.16700   2 ;     S2-    C4-   C29-   C30
   519    518    547    569      9   180.00  15.16700   2 ;     S2-    C4-   C29-   H21
   519    520    521    522      9   180.00  15.16700   2 ;     S2-    C5-    C6-    C7
   519    520    521    552      9   180.00  15.16700   2 ;     S2-    C5-    C6-    H4
   519    520    546    545      9   180.00  15.16700   2 ;     S2-    C5-   C28-   C27
   519    520    546    568      9   180.00  15.16700   2 ;     S2-    C5-   C28-   H20
   520    519    518    547      9   180.00   1.67360   2 ;     C5-    S2-    C4-   C29
   520    521    522    523      9   180.00  15.16700   2 ;     C5-    C6-    C7-    C8
   520    521    522    553      9   180.00  15.16700   2 ;     C5-    C6-    C7-    H5
   520    546    545    523      9   180.00  15.16700   2 ;     C5-   C28-   C27-    C8
   520    546    545    567      9   180.00  15.16700   2 ;     C5-   C28-   C27-   H19
   521    520    546    545      9   180.00  15.16700   2 ;     C6-    C5-   C28-   C27
   521    520    546    568      9   180.00  15.16700   2 ;     C6-    C5-   C28-   H20
   521    522    523    524      9   180.00  15.16700   2 ;     C6-    C7-    C8-    S3
   521    522    523    545      9   180.00  15.16700   2 ;     C6-    C7-    C8-   C27
   522    521    520    546      9   180.00  15.16700   2 ;     C7-    C6-    C5-   C28
   522    523    524    525      9   180.00   1.67360   2 ;     C7-    C8-    S3-    C9
   522    523    545    546      9   180.00  15.16700   2 ;     C7-    C8-   C27-   C28
   522    523    545    567      9   180.00  15.16700   2 ;     C7-    C8-   C27-   H19
   523    522    521    552      9   180.00  15.16700   2 ;     C8-    C7-    C6-    H4
   523    524    525    526      9   180.00   1.67360   2 ;     C8-    S3-    C9-   C10
   523    524    525    544      9   180.00   1.67360   2 ;     C8-    S3-    C9-   C26
   523    545    546    568      9   180.00  15.16700   2 ;     C8-   C27-   C28-   H20
   524    523    522    553      9   180.00  15.16700   2 ;     S3-    C8-    C7-    H5
   524    523    545    546      9   180.00  15.16700   2 ;     S3-    C8-   C27-   C28
   524    523    545    567      9   180.00  15.16700   2 ;     S3-    C8-   C27-   H19
   524    525    526    527      9   180.00  15.16700   2 ;     S3-    C9-   C10-   C11
   524    525    526    554      9   180.00  15.16700   2 ;     S3-    C9-   C10-    H6
   524    525    544    543      9   180.00  15.16700   2 ;     S3-    C9-   C26-   C25
   524    525    544    566      9   180.00  15.16700   2 ;     S3-    C9-   C26-   H18
   525    524    523    545      9   180.00   1.67360   2 ;     C9-    S3-    C8-   C27
   525    526    527    528      9   180.00  15.16700   2 ;     C9-   C10-   C11-   C12
   525    526    527    555      9   180.00  15.16700   2 ;     C9-   C10-   C11-    H7
   525    544    543    528      9   180.00  15.16700   2 ;     C9-   C26-   C25-   C12
   525    544    543    565      9   180.00  15.16700   2 ;     C9-   C26-   C25-   H17
   526    525    544    543      9   180.00  15.16700   2 ;    C10-    C9-   C26-   C25
   526    525    544    566      9   180.00  15.16700   2 ;    C10-    C9-   C26-   H18
   526    527    528    529      9   180.00  15.16700   2 ;    C10-   C11-   C12-    S4
   526    527    528    543      9   180.00  15.16700   2 ;    C10-   C11-   C12-   C25
   527    526    525    544      9   180.00  15.16700   2 ;    C11-   C10-    C9-   C26
   527    528    529    530      9   180.00   1.67360   2 ;    C11-   C12-    S4-   C13
   527    528    543    544      9   180.00  15.16700   2 ;    C11-   C12-   C25-   C26
   527    528    543    565      9   180.00  15.16700   2 ;    C11-   C12-   C25-   H17
   528    527    526    554      9   180.00  15.16700   2 ;    C12-   C11-   C10-    H6
   528    529    530    531      9   180.00   1.67360   2 ;    C12-    S4-   C13-   C14
   528    529    530    542      9   180.00   1.67360   2 ;    C12-    S4-   C13-   C24
   528    543    544    566      9   180.00  15.16700   2 ;    C12-   C25-   C26-   H18
   529    528    527    555      9   180.00  15.16700   2 ;     S4-   C12-   C11-    H7
   529    528    543    544      9   180.00  15.16700   2 ;     S4-   C12-   C25-   C26
   529    528    543    565      9   180.00  15.16700   2 ;     S4-   C12-   C25-   H17
   529    530    531    532      9   180.00  15.16700   2 ;     S4-   C13-   C14-   C15
   529    530    531    556      9   180.00  15.16700   2 ;     S4-   C13-   C14-    H8
   529    530    542    541      9   180.00  15.16700   2 ;     S4-   C13-   C24-   C23
   529    530    542    564      9   180.00  15.16700   2 ;     S4-   C13-   C24-   H16
   530    529    528    543      9   180.00   1.67360   2 ;    C13-    S4-   C12-   C25
   530    531    532    533      9   180.00  15.16700   2 ;    C13-   C14-   C15-   C16
   530    531    532    557      9   180.00  15.16700   2 ;    C13-   C14-   C15-    H9
   530    542    541    533      9   180.00  15.16700   2 ;    C13-   C24-   C23-   C16
   530    542    541    563      9   180.00  15.16700   2 ;    C13-   C24-   C23-   H15
   531    530    542    541      9   180.00  15.16700   2 ;    C14-   C13-   C24-   C23
   531    530    542    564      9   180.00  15.16700   2 ;    C14-   C13-   C24-   H16
   531    532    533    534      9   180.00  15.16700   2 ;    C14-   C15-   C16-    S5
   531    532    533    541      9   180.00  15.16700   2 ;    C14-   C15-   C16-   C23
   532    531    530    542      9   180.00  15.16700   2 ;    C15-   C14-   C13-   C24
   532    533    534    535      9   180.00   1.67360   2 ;    C15-   C16-    S5-   C17
   532    533    541    542      9   180.00  15.16700   2 ;    C15-   C16-   C23-   C24
   532    533    541    563      9   180.00  15.16700   2 ;    C15-   C16-   C23-   H15
   533    532    531    556      9   180.00  15.16700   2 ;    C16-   C15-   C14-    H8
   533    534    535    536      9   180.00   1.67360   2 ;    C16-    S5-   C17-   C18
   533    534    535    540      9   180.00   1.67360   2 ;    C16-    S5-   C17-   C22
   533    541    542    564      9   180.00  15.16700   2 ;    C16-   C23-   C24-   H16
   534    533    532    557      9   180.00  15.16700   2 ;     S5-   C16-   C15-    H9
   534    533    541    542      9   180.00  15.16700   2 ;     S5-   C16-   C23-   C24
   534    533    541    563      9   180.00  15.16700   2 ;     S5-   C16-   C23-   H15
   534    535    536    537      9   180.00  15.16700   2 ;     S5-   C17-   C18-   C19
   534    535    536    558      9   180.00  15.16700   2 ;     S5-   C17-   C18-   H10
   534    535    540    539      9   180.00  15.16700   2 ;     S5-   C17-   C22-   C21
   534    535    540    562      9   180.00  15.16700   2 ;     S5-   C17-   C22-   H14
   535    534    533    541      9   180.00   1.67360   2 ;    C17-    S5-   C16-   C23
   535    536    537    538      9   180.00  15.16700   2 ;    C17-   C18-   C19-   C20
   535    536    537    559      9   180.00  15.16700   2 ;    C17-   C18-   C19-   H11
   535    540    539    538      9   180.00  15.16700   2 ;    C17-   C22-   C21-   C20
   535    540    539    561      9   180.00  15.16700   2 ;    C17-   C22-   C21-   H13
   536    535    540    539      9   180.00  15.16700   2 ;    C18-   C17-   C22-   C21
   536    535    540    562      9   180.00  15.16700   2 ;    C18-   C17-   C22-   H14
   536    537    538    539      9   180.00  15.16700   2 ;    C18-   C19-   C20-   C21
   536    537    538    560      9   180.00  15.16700   2 ;    C18-   C19-   C20-   H12
   537    536    535    540      9   180.00  15.16700   2 ;    C19-   C18-   C17-   C22
   537    538    539    540      9   180.00  15.16700   2 ;    C19-   C20-   C21-   C22
   537    538    539    561      9   180.00  15.16700   2 ;    C19-   C20-   C21-   H13
   538    537    536    558      9   180.00  15.16700   2 ;    C20-   C19-   C18-   H10
   538    539    540    562      9   180.00  15.16700   2 ;    C20-   C21-   C22-   H14
   539    538    537    559      9   180.00  15.16700   2 ;    C21-   C20-   C19-   H11
   540    535    536    558      9   180.00  15.16700   2 ;    C22-   C17-   C18-   H10
   540    539    538    560      9   180.00  15.16700   2 ;    C22-   C21-   C20-   H12
   541    533    532    557      9   180.00  15.16700   2 ;    C23-   C16-   C15-    H9
   542    530    531    556      9   180.00  15.16700   2 ;    C24-   C13-   C14-    H8
   543    528    527    555      9   180.00  15.16700   2 ;    C25-   C12-   C11-    H7
   544    525    526    554      9   180.00  15.16700   2 ;    C26-    C9-   C10-    H6
   545    523    522    553      9   180.00  15.16700   2 ;    C27-    C8-    C7-    H5
   546    520    521    552      9   180.00  15.16700   2 ;    C28-    C5-    C6-    H4
   547    518    517    551      9   180.00  15.16700   2 ;    C29-    C4-    C3-    H3
   548    515    514    549      9   180.00   0.48116   2 ;    C30-    C1-    S1-    H1
   548    515    516    550      9   180.00  15.16700   2 ;    C30-    C1-    C2-    H2
   550    516    517    551      9   180.00  15.16700   2 ;     H2-    C2-    C3-    H3
   552    521    522    553      9   180.00  15.16700   2 ;     H4-    C6-    C7-    H5
   554    526    527    555      9   180.00  15.16700   2 ;     H6-   C10-   C11-    H7
   556    531    532    557      9   180.00  15.16700   2 ;     H8-   C14-   C15-    H9
   558    536    537    559      9   180.00  15.16700   2 ;    H10-   C18-   C19-   H11
   559    537    538    560      9   180.00  15.16700   2 ;    H11-   C19-   C20-   H12
   560    538    539    561      9   180.00  15.16700   2 ;    H12-   C20-   C21-   H13
   561    539    540    562      9   180.00  15.16700   2 ;    H13-   C21-   C22-   H14
   563    541    542    564      9   180.00  15.16700   2 ;    H15-   C23-   C24-   H16
   565    543    544    566      9   180.00  15.16700   2 ;    H17-   C25-   C26-   H18
   567    545    546    568      9   180.00  15.16700   2 ;    H19-   C27-   C28-   H20
   569    547    548    570      9   180.00  15.16700   2 ;    H21-   C29-   C30-   H22
   571    572    573    574      9   180.00  15.16700   2 ;     S1-    C1-    C2-    C3
   571    572    573    607      9   180.00  15.16700   2 ;     S1-    C1-    C2-    H2
   571    572    605    604      9   180.00  15.16700   2 ;     S1-    C1-   C30-   C29
   571    572    605    627      9   180.00  15.16700   2 ;     S1-    C1-   C30-   H22
   572    573    574    575      9   180.00  15.16700   2 ;     C1-    C2-    C3-    C4
   572    573    574    608      9   180.00  15.16700   2 ;     C1-    C2-    C3-    H3
   572    605    604    575      9   180.00  15.16700   2 ;     C1-   C30-   C29-    C4
   572    605    604    626      9   180.00  15.16700   2 ;     C1-   C30-   C29-   H21
   573    572    571    606      9   180.00   0.48116   2 ;     C2-    C1-    S1-    H1
   573    572    605    604      9   180.00  15.16700   2 ;     C2-    C1-   C30-   C29
   573    572    605    627      9   180.00  15.16700   2 ;     C2-    C1-   C30-   H22
   573    574    575    576      9   180.00  15.16700   2 ;     C2-    C3-    C4-    S2
   573    574    575    604      9   180.00  15.16700   2 ;     C2-    C3-    C4-   C29
   574    573    572    605      9   180.00  15.16700   2 ;     C3-    C2-    C1-   C30
   574    575    576    577      9   180.00   1.67360   2 ;     C3-    C4-    S2-    C5
   574    575    604    605      9   180.00  15.16700   2 ;     C3-    C4-   C29-   C30
   574    575    604    626      9   180.00  15.16700   2 ;     C3-    C4-   C29-   H21
   575    574    573    607      9   180.00  15.16700   2 ;     C4-    C3-    C2-    H2
   575    576    577    578      9   180.00   1.67360   2 ;     C4-    S2-    C5-    C6
   575    576    577    603      9   180.00   1.67360   2 ;     C4-    S2-    C5-   C28
   575    604    605    627      9   180.00  15.16700   2 ;     C4-   C29-   C30-   H22
   576    575    574    608      9   180.00  15.16700   2 ;     S2-    C4-    C3-    H3
   576    575    604    605      9   180.00  15.16700   2 ;     S2-    C4-   C29-   C30
   576    575    604    626      9   180.00  15.16700   2 ;     S2-    C4-   C29-   H21
   576    577    578    579      9   180.00  15.16700   2 ;     S2-    C5-    C6-    C7
   576    577    578    609      9   180.00  15.16700   2 ;     S2-    C5-    C6-    H4
   576    577    603    602      9   180.00  15.16700   2 ;     S2-    C5-   C28-   C27
   576    577    603    625      9   180.00  15.16700   2 ;     S2-    C5-   C28-   H20
   577    576    575    604      9   180.00   1.67360   2 ;     C5-    S2-    C4-   C29
   577    578    579    580      9   180.00  15.16700   2 ;     C5-    C6-    C7-    C8
   577    578    579    610      9   180.00  15.16700   2 ;     C5-    C6-    C7-    H5
   577    603    602    580      9   180.00  15.16700   2 ;     C5-   C28-   C27-    C8
   577    603    602    624      9   180.00  15.16700   2 ;     C5-   C28-   C27-   H19
   578    577    603    602      9   180.00  15.16700   2 ;     C6-    C5-   C28-   C27
   578    577    603    625      9   180.00  15.16700   2 ;     C6-    C5-   C28-   H20
   578    579    580    581      9   180.00  15.16700   2 ;     C6-    C7-    C8-    S3
   578    579    580    602      9   180.00  15.16700   2 ;     C6-    C7-    C8-   C27
   579    578    577    603      9   180.00  15.16700   2 ;     C7-    C6-    C5-   C28
   579    580    581    582      9   180.00   1.67360   2 ;     C7-    C8-    S3-    C9
   579    580    602    603      9   180.00  15.16700   2 ;     C7-    C8-   C27-   C28
   579    580    602    624      9   180.00  15.16700   2 ;     C7-    C8-   C27-   H19
   580    579    578    609      9   180.00  15.16700   2 ;     C8-    C7-    C6-    H4
   580    581    582    583      9   180.00   1.67360   2 ;     C8-    S3-    C9-   C10
   580    581    582    601      9   180.00   1.67360   2 ;     C8-    S3-    C9-   C26
   580    602    603    625      9   180.00  15.16700   2 ;     C8-   C27-   C28-   H20
   581    580    579    610      9   180.00  15.16700   2 ;     S3-    C8-    C7-    H5
   581    580    602    603      9   180.00  15.16700   2 ;     S3-    C8-   C27-   C28
   581    580    602    624      9   180.00  15.16700   2 ;     S3-    C8-   C27-   H19
   581    582    583    584      9   180.00  15.16700   2 ;     S3-    C9-   C10-   C11
   581    582    583    611      9   180.00  15.16700   2 ;     S3-    C9-   C10-    H6
   581    582    601    600      9   180.00  15.16700   2 ;     S3-    C9-   C26-   C25
   581    582    601    623      9   180.00  15.16700   2 ;     S3-    C9-   C26-   H18
   582    581    580    602      9   180.00   1.67360   2 ;     C9-    S3-    C8-   C27
   582    583    584    585      9   180.00  15.16700   2 ;     C9-   C10-   C11-   C12
   582    583    584    612      9   180.00  15.16700   2 ;     C9-   C10-   C11-    H7
   582    601    600    585      9   180.00  15.16700   2 ;     C9-   C26-   C25-   C12
   582    601    600    622      9   180.00  15.16700   2 ;     C9-   C26-   C25-   H17
   583    582    601    600      9   180.00  15.16700   2 ;    C10-    C9-   C26-   C25
   583    582    601    623      9   180.00  15.16700   2 ;    C10-    C9-   C26-   H18
   583    584    585    586      9   180.00  15.16700   2 ;    C10-   C11-   C12-    S4
   583    584    585    600      9   180.00  15.16700   2 ;    C10-   C11-   C12-   C25
   584    583    582    601      9   180.00  15.16700   2 ;    C11-   C10-    C9-   C26
   584    585    586    587      9   180.00   1.67360   2 ;    C11-   C12-    S4-   C13
   584    585    600    601      9   180.00  15.16700   2 ;    C11-   C12-   C25-   C26
   584    585    600    622      9   180.00  15.16700   2 ;    C11-   C12-   C25-   H17
   585    584    583    611      9   180.00  15.16700   2 ;    C12-   C11-   C10-    H6
   585    586    587    588      9   180.00   1.67360   2 ;    C12-    S4-   C13-   C14
   585    586    587    599      9   180.00   1.67360   2 ;    C12-    S4-   C13-   C24
   585    600    601    623      9   180.00  15.16700   2 ;    C12-   C25-   C26-   H18
   586    585    584    612      9   180.00  15.16700   2 ;     S4-   C12-   C11-    H7
   586    585    600    601      9   180.00  15.16700   2 ;     S4-   C12-   C25-   C26
   586    585    600    622      9   180.00  15.16700   2 ;     S4-   C12-   C25-   H17
   586    587    588    589      9   180.00  15.16700   2 ;     S4-   C13-   C14-   C15
   586    587    588    613      9   180.00  15.16700   2 ;     S4-   C13-   C14-    H8
   586    587    599    598      9   180.00  15.16700   2 ;     S4-   C13-   C24-   C23
   586    587    599    621      9   180.00  15.16700   2 ;     S4-   C13-   C24-   H16
   587    586    585    600      9   180.00   1.67360   2 ;    C13-    S4-   C12-   C25
   587    588    589    590      9   180.00  15.16700   2 ;    C13-   C14-   C15-   C16
   587    588    589    614      9   180.00  15.16700   2 ;    C13-   C14-   C15-    H9
   587    599    598    590      9   180.00  15.16700   2 ;    C13-   C24-   C23-   C16
   587    599    598    620      9   180.00  15.16700   2 ;    C13-   C24-   C23-   H15
   588    587    599    598      9   180.00  15.16700   2 ;    C14-   C13-   C24-   C23
   588    587    599    621      9   180.00  15.16700   2 ;    C14-   C13-   C24-   H16
   588    589    590    591      9   180.00  15.16700   2 ;    C14-   C15-   C16-    S5
   588    589    590    598      9   180.00  15.16700   2 ;    C14-   C15-   C16-   C23
   589    588    587    599      9   180.00  15.16700   2 ;    C15-   C14-   C13-   C24
   589    590    591    592      9   180.00   1.67360   2 ;    C15-   C16-    S5-   C17
   589    590    598    599      9   180.00  15.16700   2 ;    C15-   C16-   C23-   C24
   589    590    598    620      9   180.00  15.16700   2 ;    C15-   C16-   C23-   H15
   590    589    588    613      9   180.00  15.16700   2 ;    C16-   C15-   C14-    H8
   590    591    592    593      9   180.00   1.67360   2 ;    C16-    S5-   C17-   C18
   590    591    592    597      9   180.00   1.67360   2 ;    C16-    S5-   C17-   C22
   590    598    599    621      9   180.00  15.16700   2 ;    C16-   C23-   C24-   H16
   591    590    589    614      9   180.00  15.16700   2 ;     S5-   C16-   C15-    H9
   591    590    598    599      9   180.00  15.16700   2 ;     S5-   C16-   C23-   C24
   591    590    598    620      9   180.00  15.16700   2 ;     S5-   C16-   C23-   H15
   591    592    593    594      9   180.00  15.16700   2 ;     S5-   C17-   C18-   C19
   591    592    593    615      9   180.00  15.16700   2 ;     S5-   C17-   C18-   H10
   591    592    597    596      9   180.00  15.16700   2 ;     S5-   C17-   C22-   C21
   591    592    597    619      9   180.00  15.16700   2 ;     S5-   C17-   C22-   H14
   592    591    590    598      9   180.00   1.67360   2 ;    C17-    S5-   C16-   C23
   592    593    594    595      9   180.00  15.16700   2 ;    C17-   C18-   C19-   C20
   592    593    594    616      9   180.00  15.16700   2 ;    C17-   C18-   C19-   H11
   592    597    596    595      9   180.00  15.16700   2 ;    C17-   C22-   C21-   C20
   592    597    596    618      9   180.00  15.16700   2 ;    C17-   C22-   C21-   H13
   593    592    597    596      9   180.00  15.16700   2 ;    C18-   C17-   C22-   C21
   593    592    597    619      9   180.00  15.16700   2 ;    C18-   C17-   C22-   H14
   593    594    595    596      9   180.00  15.16700   2 ;    C18-   C19-   C20-   C21
   593    594    595    617      9   180.00  15.16700   2 ;    C18-   C19-   C20-   H12
   594    593    592    597      9   180.00  15.16700   2 ;    C19-   C18-   C17-   C22
   594    595    596    597      9   180.00  15.16700   2 ;    C19-   C20-   C21-   C22
   594    595    596    618      9   180.00  15.16700   2 ;    C19-   C20-   C21-   H13
   595    594    593    615      9   180.00  15.16700   2 ;    C20-   C19-   C18-   H10
   595    596    597    619      9   180.00  15.16700   2 ;    C20-   C21-   C22-   H14
   596    595    594    616      9   180.00  15.16700   2 ;    C21-   C20-   C19-   H11
   597    592    593    615      9   180.00  15.16700   2 ;    C22-   C17-   C18-   H10
   597    596    595    617      9   180.00  15.16700   2 ;    C22-   C21-   C20-   H12
   598    590    589    614      9   180.00  15.16700   2 ;    C23-   C16-   C15-    H9
   599    587    588    613      9   180.00  15.16700   2 ;    C24-   C13-   C14-    H8
   600    585    584    612      9   180.00  15.16700   2 ;    C25-   C12-   C11-    H7
   601    582    583    611      9   180.00  15.16700   2 ;    C26-    C9-   C10-    H6
   602    580    579    610      9   180.00  15.16700   2 ;    C27-    C8-    C7-    H5
   603    577    578    609      9   180.00  15.16700   2 ;    C28-    C5-    C6-    H4
   604    575    574    608      9   180.00  15.16700   2 ;    C29-    C4-    C3-    H3
   605    572    571    606      9   180.00   0.48116   2 ;    C30-    C1-    S1-    H1
   605    572    573    607      9   180.00  15.16700   2 ;    C30-    C1-    C2-    H2
   607    573    574    608      9   180.00  15.16700   2 ;     H2-    C2-    C3-    H3
   609    578    579    610      9   180.00  15.16700   2 ;     H4-    C6-    C7-    H5
   611    583    584    612      9   180.00  15.16700   2 ;     H6-   C10-   C11-    H7
   613    588    589    614      9   180.00  15.16700   2 ;     H8-   C14-   C15-    H9
   615    593    594    616      9   180.00  15.16700   2 ;    H10-   C18-   C19-   H11
   616    594    595    617      9   180.00  15.16700   2 ;    H11-   C19-   C20-   H12
   617    595    596    618      9   180.00  15.16700   2 ;    H12-   C20-   C21-   H13
   618    596    597    619      9   180.00  15.16700   2 ;    H13-   C21-   C22-   H14
   620    598    599    621      9   180.00  15.16700   2 ;    H15-   C23-   C24-   H16
   622    600    601    623      9   180.00  15.16700   2 ;    H17-   C25-   C26-   H18
   624    602    603    625      9   180.00  15.16700   2 ;    H19-   C27-   C28-   H20
   626    604    605    627      9   180.00  15.16700   2 ;    H21-   C29-   C30-   H22
   628    629    630    631      9   180.00  15.16700   2 ;     S1-    C1-    C2-    C3
   628    629    630    664      9   180.00  15.16700   2 ;     S1-    C1-    C2-    H2
   628    629    662    661      9   180.00  15.16700   2 ;     S1-    C1-   C30-   C29
   628    629    662    684      9   180.00  15.16700   2 ;     S1-    C1-   C30-   H22
   629    630    631    632      9   180.00  15.16700   2 ;     C1-    C2-    C3-    C4
   629    630    631    665      9   180.00  15.16700   2 ;     C1-    C2-    C3-    H3
   629    662    661    632      9   180.00  15.16700   2 ;     C1-   C30-   C29-    C4
   629    662    661    683      9   180.00  15.16700   2 ;     C1-   C30-   C29-   H21
   630    629    628    663      9   180.00   0.48116   2 ;     C2-    C1-    S1-    H1
   630    629    662    661      9   180.00  15.16700   2 ;     C2-    C1-   C30-   C29
   630    629    662    684      9   180.00  15.16700   2 ;     C2-    C1-   C30-   H22
   630    631    632    633      9   180.00  15.16700   2 ;     C2-    C3-    C4-    S2
   630    631    632    661      9   180.00  15.16700   2 ;     C2-    C3-    C4-   C29
   631    630    629    662      9   180.00  15.16700   2 ;     C3-    C2-    C1-   C30
   631    632    633    634      9   180.00   1.67360   2 ;     C3-    C4-    S2-    C5
   631    632    661    662      9   180.00  15.16700   2 ;     C3-    C4-   C29-   C30
   631    632    661    683      9   180.00  15.16700   2 ;     C3-    C4-   C29-   H21
   632    631    630    664      9   180.00  15.16700   2 ;     C4-    C3-    C2-    H2
   632    633    634    635      9   180.00   1.67360   2 ;     C4-    S2-    C5-    C6
   632    633    634    660      9   180.00   1.67360   2 ;     C4-    S2-    C5-   C28
   632    661    662    684      9   180.00  15.16700   2 ;     C4-   C29-   C30-   H22
   633    632    631    665      9   180.00  15.16700   2 ;     S2-    C4-    C3-    H3
   633    632    661    662      9   180.00  15.16700   2 ;     S2-    C4-   C29-   C30
   633    632    661    683      9   180.00  15.16700   2 ;     S2-    C4-   C29-   H21
   633    634    635    636      9   180.00  15.16700   2 ;     S2-    C5-    C6-    C7
   633    634    635    666      9   180.00  15.16700   2 ;     S2-    C5-    C6-    H4
   633    634    660    659      9   180.00  15.16700   2 ;     S2-    C5-   C28-   C27
   633    634    660    682      9   180.00  15.16700   2 ;     S2-    C5-   C28-   H20
   634    633    632    661      9   180.00   1.67360   2 ;     C5-    S2-    C4-   C29
   634    635    636    637      9   180.00  15.16700   2 ;     C5-    C6-    C7-    C8
   634    635    636    667      9   180.00  15.16700   2 ;     C5-    C6-    C7-    H5
   634    660    659    637      9   180.00  15.16700   2 ;     C5-   C28-   C27-    C8
   634    660    659    681      9   180.00  15.16700   2 ;     C5-   C28-   C27-   H19
   635    634    660    659      9   180.00  15.16700   2 ;     C6-    C5-   C28-   C27
   635    634    660    682      9   180.00  15.16700   2 ;     C6-    C5-   C28-   H20
   635    636    637    638      9   180.00  15.16700   2 ;     C6-    C7-    C8-    S3
   635    636    637    659      9   180.00  15.16700   2 ;     C6-    C7-    C8-   C27
   636    635    634    660      9   180.00  15.16700   2 ;     C7-    C6-    C5-   C28
   636    637    638    639      9   180.00   1.67360   2 ;     C7-    C8-    S3-    C9
   636    637    659    660      9   180.00  15.16700   2 ;     C7-    C8-   C27-   C28
   636    637    659    681      9   180.00  15.16700   2 ;     C7-    C8-   C27-   H19
   637    636    635    666      9   180.00  15.16700   2 ;     C8-    C7-    C6-    H4
   637    638    639    640      9   180.00   1.67360   2 ;     C8-    S3-    C9-   C10
   637    638    639    658      9   180.00   1.67360   2 ;     C8-    S3-    C9-   C26
   637    659    660    682      9   180.00  15.16700   2 ;     C8-   C27-   C28-   H20
   638    637    636    667      9   180.00  15.16700   2 ;     S3-    C8-    C7-    H5
   638    637    659    660      9   180.00  15.16700   2 ;     S3-    C8-   C27-   C28
   638    637    659    681      9   180.00  15.16700   2 ;     S3-    C8-   C27-   H19
   638    639    640    641      9   180.00  15.16700   2 ;     S3-    C9-   C10-   C11
   638    639    640    668      9   180.00  15.16700   2 ;     S3-    C9-   C10-    H6
   638    639    658    657      9   180.00  15.16700   2 ;     S3-    C9-   C26-   C25
   638    639    658    680      9   180.00  15.16700   2 ;     S3-    C9-   C26-   H18
   639    638    637    659      9   180.00   1.67360   2 ;     C9-    S3-    C8-   C27
   639    640    641    642      9   180.00  15.16700   2 ;     C9-   C10-   C11-   C12
   639    640    641    669      9   180.00  15.16700   2 ;     C9-   C10-   C11-    H7
   639    658    657    642      9   180.00  15.16700   2 ;     C9-   C26-   C25-   C12
   639    658    657    679      9   180.00  15.16700   2 ;     C9-   C26-   C25-   H17
   640    639    658    657      9   180.00  15.16700   2 ;    C10-    C9-   C26-   C25
   640    639    658    680      9   180.00  15.16700   2 ;    C10-    C9-   C26-   H18
   640    641    642    643      9   180.00  15.16700   2 ;    C10-   C11-   C12-    S4
   640    641    642    657      9   180.00  15.16700   2 ;    C10-   C11-   C12-   C25
   641    640    639    658      9   180.00  15.16700   2 ;    C11-   C10-    C9-   C26
   641    642    643    644      9   180.00   1.67360   2 ;    C11-   C12-    S4-   C13
   641    642    657    658      9   180.00  15.16700   2 ;    C11-   C12-   C25-   C26
   641    642    657    679      9   180.00  15.16700   2 ;    C11-   C12-   C25-   H17
   642    641    640    668      9   180.00  15.16700   2 ;    C12-   C11-   C10-    H6
   642    643    644    645      9   180.00   1.67360   2 ;    C12-    S4-   C13-   C14
   642    643    644    656      9   180.00   1.67360   2 ;    C12-    S4-   C13-   C24
   642    657    658    680      9   180.00  15.16700   2 ;    C12-   C25-   C26-   H18
   643    642    641    669      9   180.00  15.16700   2 ;     S4-   C12-   C11-    H7
   643    642    657    658      9   180.00  15.16700   2 ;     S4-   C12-   C25-   C26
   643    642    657    679      9   180.00  15.16700   2 ;     S4-   C12-   C25-   H17
   643    644    645    646      9   180.00  15.16700   2 ;     S4-   C13-   C14-   C15
   643    644    645    670      9   180.00  15.16700   2 ;     S4-   C13-   C14-    H8
   643    644    656    655      9   180.00  15.16700   2 ;     S4-   C13-   C24-   C23
   643    644    656    678      9   180.00  15.16700   2 ;     S4-   C13-   C24-   H16
   644    643    642    657      9   180.00   1.67360   2 ;    C13-    S4-   C12-   C25
   644    645    646    647      9   180.00  15.16700   2 ;    C13-   C14-   C15-   C16
   644    645    646    671      9   180.00  15.16700   2 ;    C13-   C14-   C15-    H9
   644    656    655    647      9   180.00  15.16700   2 ;    C13-   C24-   C23-   C16
   644    656    655    677      9   180.00  15.16700   2 ;    C13-   C24-   C23-   H15
   645    644    656    655      9   180.00  15.16700   2 ;    C14-   C13-   C24-   C23
   645    644    656    678      9   180.00  15.16700   2 ;    C14-   C13-   C24-   H16
   645    646    647    648      9   180.00  15.16700   2 ;    C14-   C15-   C16-    S5
   645    646    647    655      9   180.00  15.16700   2 ;    C14-   C15-   C16-   C23
   646    645    644    656      9   180.00  15.16700   2 ;    C15-   C14-   C13-   C24
   646    647    648    649      9   180.00   1.67360   2 ;    C15-   C16-    S5-   C17
   646    647    655    656      9   180.00  15.16700   2 ;    C15-   C16-   C23-   C24
   646    647    655    677      9   180.00  15.16700   2 ;    C15-   C16-   C23-   H15
   647    646    645    670      9   180.00  15.16700   2 ;    C16-   C15-   C14-    H8
   647    648    649    650      9   180.00   1.67360   2 ;    C16-    S5-   C17-   C18
   647    648    649    654      9   180.00   1.67360   2 ;    C16-    S5-   C17-   C22
   647    655    656    678      9   180.00  15.16700   2 ;    C16-   C23-   C24-   H16
   648    647    646    671      9   180.00  15.16700   2 ;     S5-   C16-   C15-    H9
   648    647    655    656      9   180.00  15.16700   2 ;     S5-   C16-   C23-   C24
   648    647    655    677      9   180.00  15.16700   2 ;     S5-   C16-   C23-   H15
   648    649    650    651      9   180.00  15.16700   2 ;     S5-   C17-   C18-   C19
   648    649    650    672      9   180.00  15.16700   2 ;     S5-   C17-   C18-   H10
   648    649    654    653      9   180.00  15.16700   2 ;     S5-   C17-   C22-   C21
   648    649    654    676      9   180.00  15.16700   2 ;     S5-   C17-   C22-   H14
   649    648    647    655      9   180.00   1.67360   2 ;    C17-    S5-   C16-   C23
   649    650    651    652      9   180.00  15.16700   2 ;    C17-   C18-   C19-   C20
   649    650    651    673      9   180.00  15.16700   2 ;    C17-   C18-   C19-   H11
   649    654    653    652      9   180.00  15.16700   2 ;    C17-   C22-   C21-   C20
   649    654    653    675      9   180.00  15.16700   2 ;    C17-   C22-   C21-   H13
   650    649    654    653      9   180.00  15.16700   2 ;    C18-   C17-   C22-   C21
   650    649    654    676      9   180.00  15.16700   2 ;    C18-   C17-   C22-   H14
   650    651    652    653      9   180.00  15.16700   2 ;    C18-   C19-   C20-   C21
   650    651    652    674      9   180.00  15.16700   2 ;    C18-   C19-   C20-   H12
   651    650    649    654      9   180.00  15.16700   2 ;    C19-   C18-   C17-   C22
   651    652    653    654      9   180.00  15.16700   2 ;    C19-   C20-   C21-   C22
   651    652    653    675      9   180.00  15.16700   2 ;    C19-   C20-   C21-   H13
   652    651    650    672      9   180.00  15.16700   2 ;    C20-   C19-   C18-   H10
   652    653    654    676      9   180.00  15.16700   2 ;    C20-   C21-   C22-   H14
   653    652    651    673      9   180.00  15.16700   2 ;    C21-   C20-   C19-   H11
   654    649    650    672      9   180.00  15.16700   2 ;    C22-   C17-   C18-   H10
   654    653    652    674      9   180.00  15.16700   2 ;    C22-   C21-   C20-   H12
   655    647    646    671      9   180.00  15.16700   2 ;    C23-   C16-   C15-    H9
   656    644    645    670      9   180.00  15.16700   2 ;    C24-   C13-   C14-    H8
   657    642    641    669      9   180.00  15.16700   2 ;    C25-   C12-   C11-    H7
   658    639    640    668      9   180.00  15.16700   2 ;    C26-    C9-   C10-    H6
   659    637    636    667      9   180.00  15.16700   2 ;    C27-    C8-    C7-    H5
   660    634    635    666      9   180.00  15.16700   2 ;    C28-    C5-    C6-    H4
   661    632    631    665      9   180.00  15.16700   2 ;    C29-    C4-    C3-    H3
   662    629    628    663      9   180.00   0.48116   2 ;    C30-    C1-    S1-    H1
   662    629    630    664      9   180.00  15.16700   2 ;    C30-    C1-    C2-    H2
   664    630    631    665      9   180.00  15.16700   2 ;     H2-    C2-    C3-    H3
   666    635    636    667      9   180.00  15.16700   2 ;     H4-    C6-    C7-    H5
   668    640    641    669      9   180.00  15.16700   2 ;     H6-   C10-   C11-    H7
   670    645    646    671      9   180.00  15.16700   2 ;     H8-   C14-   C15-    H9
   672    650    651    673      9   180.00  15.16700   2 ;    H10-   C18-   C19-   H11
   673    651    652    674      9   180.00  15.16700   2 ;    H11-   C19-   C20-   H12
   674    652    653    675      9   180.00  15.16700   2 ;    H12-   C20-   C21-   H13
   675    653    654    676      9   180.00  15.16700   2 ;    H13-   C21-   C22-   H14
   677    655    656    678      9   180.00  15.16700   2 ;    H15-   C23-   C24-   H16
   679    657    658    680      9   180.00  15.16700   2 ;    H17-   C25-   C26-   H18
   681    659    660    682      9   180.00  15.16700   2 ;    H19-   C27-   C28-   H20
   683    661    662    684      9   180.00  15.16700   2 ;    H21-   C29-   C30-   H22
   685    686    687    688      9   180.00  15.16700   2 ;     S1-    C1-    C2-    C3
   685    686    687    721      9   180.00  15.16700   2 ;     S1-    C1-    C2-    H2
   685    686    719    718      9   180.00  15.16700   2 ;     S1-    C1-   C30-   C29
   685    686    719    741      9   180.00  15.16700   2 ;     S1-    C1-   C30-   H22
   686    687    688    689      9   180.00  15.16700   2 ;     C1-    C2-    C3-    C4
   686    687    688    722      9   180.00  15.16700   2 ;     C1-    C2-    C3-    H3
   686    719    718    689      9   180.00  15.16700   2 ;     C1-   C30-   C29-    C4
   686    719    718    740      9   180.00  15.16700   2 ;     C1-   C30-   C29-   H21
   687    686    685    720      9   180.00   0.48116   2 ;     C2-    C1-    S1-    H1
   687    686    719    718      9   180.00  15.16700   2 ;     C2-    C1-   C30-   C29
   687    686    719    741      9   180.00  15.16700   2 ;     C2-    C1-   C30-   H22
   687    688    689    690      9   180.00  15.16700   2 ;     C2-    C3-    C4-    S2
   687    688    689    718      9   180.00  15.16700   2 ;     C2-    C3-    C4-   C29
   688    687    686    719      9   180.00  15.16700   2 ;     C3-    C2-    C1-   C30
   688    689    690    691      9   180.00   1.67360   2 ;     C3-    C4-    S2-    C5
   688    689    718    719      9   180.00  15.16700   2 ;     C3-    C4-   C29-   C30
   688    689    718    740      9   180.00  15.16700   2 ;     C3-    C4-   C29-   H21
   689    688    687    721      9   180.00  15.16700   2 ;     C4-    C3-    C2-    H2
   689    690    691    692      9   180.00   1.67360   2 ;     C4-    S2-    C5-    C6
   689    690    691    717      9   180.00   1.67360   2 ;     C4-    S2-    C5-   C28
   689    718    719    741      9   180.00  15.16700   2 ;     C4-   C29-   C30-   H22
   690    689    688    722      9   180.00  15.16700   2 ;     S2-    C4-    C3-    H3
   690    689    718    719      9   180.00  15.16700   2 ;     S2-    C4-   C29-   C30
   690    689    718    740      9   180.00  15.16700   2 ;     S2-    C4-   C29-   H21
   690    691    692    693      9   180.00  15.16700   2 ;     S2-    C5-    C6-    C7
   690    691    692    723      9   180.00  15.16700   2 ;     S2-    C5-    C6-    H4
   690    691    717    716      9   180.00  15.16700   2 ;     S2-    C5-   C28-   C27
   690    691    717    739      9   180.00  15.16700   2 ;     S2-    C5-   C28-   H20
   691    690    689    718      9   180.00   1.67360   2 ;     C5-    S2-    C4-   C29
   691    692    693    694      9   180.00  15.16700   2 ;     C5-    C6-    C7-    C8
   691    692    693    724      9   180.00  15.16700   2 ;     C5-    C6-    C7-    H5
   691    717    716    694      9   180.00  15.16700   2 ;     C5-   C28-   C27-    C8
   691    717    716    738      9   180.00  15.16700   2 ;     C5-   C28-   C27-   H19
   692    691    717    716      9   180.00  15.16700   2 ;     C6-    C5-   C28-   C27
   692    691    717    739      9   180.00  15.16700   2 ;     C6-    C5-   C28-   H20
   692    693    694    695      9   180.00  15.16700   2 ;     C6-    C7-    C8-    S3
   692    693    694    716      9   180.00  15.16700   2 ;     C6-    C7-    C8-   C27
   693    692    691    717      9   180.00  15.16700   2 ;     C7-    C6-    C5-   C28
   693    694    695    696      9   180.00   1.67360   2 ;     C7-    C8-    S3-    C9
   693    694    716    717      9   180.00  15.16700   2 ;     C7-    C8-   C27-   C28
   693    694    716    738      9   180.00  15.16700   2 ;     C7-    C8-   C27-   H19
   694    693    692    723      9   180.00  15.16700   2 ;     C8-    C7-    C6-    H4
   694    695    696    697      9   180.00   1.67360   2 ;     C8-    S3-    C9-   C10
   694    695    696    715      9   180.00   1.67360   2 ;     C8-    S3-    C9-   C26
   694    716    717    739      9   180.00  15.16700   2 ;     C8-   C27-   C28-   H20
   695    694    693    724      9   180.00  15.16700   2 ;     S3-    C8-    C7-    H5
   695    694    716    717      9   180.00  15.16700   2 ;     S3-    C8-   C27-   C28
   695    694    716    738      9   180.00  15.16700   2 ;     S3-    C8-   C27-   H19
   695    696    697    698      9   180.00  15.16700   2 ;     S3-    C9-   C10-   C11
   695    696    697    725      9   180.00  15.16700   2 ;     S3-    C9-   C10-    H6
   695    696    715    714      9   180.00  15.16700   2 ;     S3-    C9-   C26-   C25
   695    696    715    737      9   180.00  15.16700   2 ;     S3-    C9-   C26-   H18
   696    695    694    716      9   180.00   1.67360   2 ;     C9-    S3-    C8-   C27
   696    697    698    699      9   180.00  15.16700   2 ;     C9-   C10-   C11-   C12
   696    697    698    726      9   180.00  15.16700   2 ;     C9-   C10-   C11-    H7
   696    715    714    699      9   180.00  15.16700   2 ;     C9-   C26-   C25-   C12
   696    715    714    736      9   180.00  15.16700   2 ;     C9-   C26-   C25-   H17
   697    696    715    714      9   180.00  15.16700   2 ;    C10-    C9-   C26-   C25
   697    696    715    737      9   180.00  15.16700   2 ;    C10-    C9-   C26-   H18
   697    698    699    700      9   180.00  15.16700   2 ;    C10-   C11-   C12-    S4
   697    698    699    714      9   180.00  15.16700   2 ;    C10-   C11-   C12-   C25
   698    697    696    715      9   180.00  15.16700   2 ;    C11-   C10-    C9-   C26
   698    699    700    701      9   180.00   1.67360   2 ;    C11-   C12-    S4-   C13
   698    699    714    715      9   180.00  15.16700   2 ;    C11-   C12-   C25-   C26
   698    699    714    736      9   180.00  15.16700   2 ;    C11-   C12-   C25-   H17
   699    698    697    725      9   180.00  15.16700   2 ;    C12-   C11-   C10-    H6
   699    700    701    702      9   180.00   1.67360   2 ;    C12-    S4-   C13-   C14
   699    700    701    713      9   180.00   1.67360   2 ;    C12-    S4-   C13-   C24
   699    714    715    737      9   180.00  15.16700   2 ;    C12-   C25-   C26-   H18
   700    699    698    726      9   180.00  15.16700   2 ;     S4-   C12-   C11-    H7
   700    699    714    715      9   180.00  15.16700   2 ;     S4-   C12-   C25-   C26
   700    699    714    736      9   180.00  15.16700   2 ;     S4-   C12-   C25-   H17
   700    701    702    703      9   180.00  15.16700   2 ;     S4-   C13-   C14-   C15
   700    701    702    727      9   180.00  15.16700   2 ;     S4-   C13-   C14-    H8
   700    701    713    712      9   180.00  15.16700   2 ;     S4-   C13-   C24-   C23
   700    701    713    735      9   180.00  15.16700   2 ;     S4-   C13-   C24-   H16
   701    700    699    714      9   180.00   1.67360   2 ;    C13-    S4-   C12-   C25
   701    702    703    704      9   180.00  15.16700   2 ;    C13-   C14-   C15-   C16
   701    702    703    728      9   180.00  15.16700   2 ;    C13-   C14-   C15-    H9
   701    713    712    704      9   180.00  15.16700   2 ;    C13-   C24-   C23-   C16
   701    713    712    734      9   180.00  15.16700   2 ;    C13-   C24-   C23-   H15
   702    701    713    712      9   180.00  15.16700   2 ;    C14-   C13-   C24-   C23
   702    701    713    735      9   180.00  15.16700   2 ;    C14-   C13-   C24-   H16
   702    703    704    705      9   180.00  15.16700   2 ;    C14-   C15-   C16-    S5
   702    703    704    712      9   180.00  15.16700   2 ;    C14-   C15-   C16-   C23
   703    702    701    713      9   180.00  15.16700   2 ;    C15-   C14-   C13-   C24
   703    704    705    706      9   180.00   1.67360   2 ;    C15-   C16-    S5-   C17
   703    704    712    713      9   180.00  15.16700   2 ;    C15-   C16-   C23-   C24
   703    704    712    734      9   180.00  15.16700   2 ;    C15-   C16-   C23-   H15
   704    703    702    727      9   180.00  15.16700   2 ;    C16-   C15-   C14-    H8
   704    705    706    707      9   180.00   1.67360   2 ;    C16-    S5-   C17-   C18
   704    705    706    711      9   180.00   1.67360   2 ;    C16-    S5-   C17-   C22
   704    712    713    735      9   180.00  15.16700   2 ;    C16-   C23-   C24-   H16
   705    704    703    728      9   180.00  15.16700   2 ;     S5-   C16-   C15-    H9
   705    704    712    713      9   180.00  15.16700   2 ;     S5-   C16-   C23-   C24
   705    704    712    734      9   180.00  15.16700   2 ;     S5-   C16-   C23-   H15
   705    706    707    708      9   180.00  15.16700   2 ;     S5-   C17-   C18-   C19
   705    706    707    729      9   180.00  15.16700   2 ;     S5-   C17-   C18-   H10
   705    706    711    710      9   180.00  15.16700   2 ;     S5-   C17-   C22-   C21
   705    706    711    733      9   180.00  15.16700   2 ;     S5-   C17-   C22-   H14
   706    705    704    712      9   180.00   1.67360   2 ;    C17-    S5-   C16-   C23
   706    707    708    709      9   180.00  15.16700   2 ;    C17-   C18-   C19-   C20
   706    707    708    730      9   180.00  15.16700   2 ;    C17-   C18-   C19-   H11
   706    711    710    709      9   180.00  15.16700   2 ;    C17-   C22-   C21-   C20
   706    711    710    732      9   180.00  15.16700   2 ;    C17-   C22-   C21-   H13
   707    706    711    710      9   180.00  15.16700   2 ;    C18-   C17-   C22-   C21
   707    706    711    733      9   180.00  15.16700   2 ;    C18-   C17-   C22-   H14
   707    708    709    710      9   180.00  15.16700   2 ;    C18-   C19-   C20-   C21
   707    708    709    731      9   180.00  15.16700   2 ;    C18-   C19-   C20-   H12
   708    707    706    711      9   180.00  15.16700   2 ;    C19-   C18-   C17-   C22
   708    709    710    711      9   180.00  15.16700   2 ;    C19-   C20-   C21-   C22
   708    709    710    732      9   180.00  15.16700   2 ;    C19-   C20-   C21-   H13
   709    708    707    729      9   180.00  15.16700   2 ;    C20-   C19-   C18-   H10
   709    710    711    733      9   180.00  15.16700   2 ;    C20-   C21-   C22-   H14
   710    709    708    730      9   180.00  15.16700   2 ;    C21-   C20-   C19-   H11
   711    706    707    729      9   180.00  15.16700   2 ;    C22-   C17-   C18-   H10
   711    710    709    731      9   180.00  15.16700   2 ;    C22-   C21-   C20-   H12
   712    704    703    728      9   180.00  15.16700   2 ;    C23-   C16-   C15-    H9
   713    701    702    727      9   180.00  15.16700   2 ;    C24-   C13-   C14-    H8
   714    699    698    726      9   180.00  15.16700   2 ;    C25-   C12-   C11-    H7
   715    696    697    725      9   180.00  15.16700   2 ;    C26-    C9-   C10-    H6
   716    694    693    724      9   180.00  15.16700   2 ;    C27-    C8-    C7-    H5
   717    691    692    723      9   180.00  15.16700   2 ;    C28-    C5-    C6-    H4
   718    689    688    722      9   180.00  15.16700   2 ;    C29-    C4-    C3-    H3
   719    686    685    720      9   180.00   0.48116   2 ;    C30-    C1-    S1-    H1
   719    686    687    721      9   180.00  15.16700   2 ;    C30-    C1-    C2-    H2
   721    687    688    722      9   180.00  15.16700   2 ;     H2-    C2-    C3-    H3
   723    692    693    724      9   180.00  15.16700   2 ;     H4-    C6-    C7-    H5
   725    697    698    726      9   180.00  15.16700   2 ;     H6-   C10-   C11-    H7
   727    702    703    728      9   180.00  15.16700   2 ;     H8-   C14-   C15-    H9
   729    707    708    730      9   180.00  15.16700   2 ;    H10-   C18-   C19-   H11
   730    708    709    731      9   180.00  15.16700   2 ;    H11-   C19-   C20-   H12
   731    709    710    732      9   180.00  15.16700   2 ;    H12-   C20-   C21-   H13
   732    710    711    733      9   180.00  15.16700   2 ;    H13-   C21-   C22-   H14
   734    712    713    735      9   180.00  15.16700   2 ;    H15-   C23-   C24-   H16
   736    714    715    737      9   180.00  15.16700   2 ;    H17-   C25-   C26-   H18
   738    716    717    739      9   180.00  15.16700   2 ;    H19-   C27-   C28-   H20
   740    718    719    741      9   180.00  15.16700   2 ;    H21-   C29-   C30-   H22
   742    743    744    745      9   180.00  15.16700   2 ;     S1-    C1-    C2-    C3
   742    743    744    778      9   180.00  15.16700   2 ;     S1-    C1-    C2-    H2
   742    743    776    775      9   180.00  15.16700   2 ;     S1-    C1-   C30-   C29
   742    743    776    798      9   180.00  15.16700   2 ;     S1-    C1-   C30-   H22
   743    744    745    746      9   180.00  15.16700   2 ;     C1-    C2-    C3-    C4
   743    744    745    779      9   180.00  15.16700   2 ;     C1-    C2-    C3-    H3
   743    776    775    746      9   180.00  15.16700   2 ;     C1-   C30-   C29-    C4
   743    776    775    797      9   180.00  15.16700   2 ;     C1-   C30-   C29-   H21
   744    743    742    777      9   180.00   0.48116   2 ;     C2-    C1-    S1-    H1
   744    743    776    775      9   180.00  15.16700   2 ;     C2-    C1-   C30-   C29
   744    743    776    798      9   180.00  15.16700   2 ;     C2-    C1-   C30-   H22
   744    745    746    747      9   180.00  15.16700   2 ;     C2-    C3-    C4-    S2
   744    745    746    775      9   180.00  15.16700   2 ;     C2-    C3-    C4-   C29
   745    744    743    776      9   180.00  15.16700   2 ;     C3-    C2-    C1-   C30
   745    746    747    748      9   180.00   1.67360   2 ;     C3-    C4-    S2-    C5
   745    746    775    776      9   180.00  15.16700   2 ;     C3-    C4-   C29-   C30
   745    746    775    797      9   180.00  15.16700   2 ;     C3-    C4-   C29-   H21
   746    745    744    778      9   180.00  15.16700   2 ;     C4-    C3-    C2-    H2
   746    747    748    749      9   180.00   1.67360   2 ;     C4-    S2-    C5-    C6
   746    747    748    774      9   180.00   1.67360   2 ;     C4-    S2-    C5-   C28
   746    775    776    798      9   180.00  15.16700   2 ;     C4-   C29-   C30-   H22
   747    746    745    779      9   180.00  15.16700   2 ;     S2-    C4-    C3-    H3
   747    746    775    776      9   180.00  15.16700   2 ;     S2-    C4-   C29-   C30
   747    746    775    797      9   180.00  15.16700   2 ;     S2-    C4-   C29-   H21
   747    748    749    750      9   180.00  15.16700   2 ;     S2-    C5-    C6-    C7
   747    748    749    780      9   180.00  15.16700   2 ;     S2-    C5-    C6-    H4
   747    748    774    773      9   180.00  15.16700   2 ;     S2-    C5-   C28-   C27
   747    748    774    796      9   180.00  15.16700   2 ;     S2-    C5-   C28-   H20
   748    747    746    775      9   180.00   1.67360   2 ;     C5-    S2-    C4-   C29
   748    749    750    751      9   180.00  15.16700   2 ;     C5-    C6-    C7-    C8
   748    749    750    781      9   180.00  15.16700   2 ;     C5-    C6-    C7-    H5
   748    774    773    751      9   180.00  15.16700   2 ;     C5-   C28-   C27-    C8
   748    774    773    795      9   180.00  15.16700   2 ;     C5-   C28-   C27-   H19
   749    748    774    773      9   180.00  15.16700   2 ;     C6-    C5-   C28-   C27
   749    748    774    796      9   180.00  15.16700   2 ;     C6-    C5-   C28-   H20
   749    750    751    752      9   180.00  15.16700   2 ;     C6-    C7-    C8-    S3
   749    750    751    773      9   180.00  15.16700   2 ;     C6-    C7-    C8-   C27
   750    749    748    774      9   180.00  15.16700   2 ;     C7-    C6-    C5-   C28
   750    751    752    753      9   180.00   1.67360   2 ;     C7-    C8-    S3-    C9
   750    751    773    774      9   180.00  15.16700   2 ;     C7-    C8-   C27-   C28
   750    751    773    795      9   180.00  15.16700   2 ;     C7-    C8-   C27-   H19
   751    750    749    780      9   180.00  15.16700   2 ;     C8-    C7-    C6-    H4
   751    752    753    754      9   180.00   1.67360   2 ;     C8-    S3-    C9-   C10
   751    752    753    772      9   180.00   1.67360   2 ;     C8-    S3-    C9-   C26
   751    773    774    796      9   180.00  15.16700   2 ;     C8-   C27-   C28-   H20
   752    751    750    781      9   180.00  15.16700   2 ;     S3-    C8-    C7-    H5
   752    751    773    774      9   180.00  15.16700   2 ;     S3-    C8-   C27-   C28
   752    751    773    795      9   180.00  15.16700   2 ;     S3-    C8-   C27-   H19
   752    753    754    755      9   180.00  15.16700   2 ;     S3-    C9-   C10-   C11
   752    753    754    782      9   180.00  15.16700   2 ;     S3-    C9-   C10-    H6
   752    753    772    771      9   180.00  15.16700   2 ;     S3-    C9-   C26-   C25
   752    753    772    794      9   180.00  15.16700   2 ;     S3-    C9-   C26-   H18
   753    752    751    773      9   180.00   1.67360   2 ;     C9-    S3-    C8-   C27
   753    754    755    756      9   180.00  15.16700   2 ;     C9-   C10-   C11-   C12
   753    754    755    783      9   180.00  15.16700   2 ;     C9-   C10-   C11-    H7
   753    772    771    756      9   180.00  15.16700   2 ;     C9-   C26-   C25-   C12
   753    772    771    793      9   180.00  15.16700   2 ;     C9-   C26-   C25-   H17
   754    753    772    771      9   180.00  15.16700   2 ;    C10-    C9-   C26-   C25
   754    753    772    794      9   180.00  15.16700   2 ;    C10-    C9-   C26-   H18
   754    755    756    757      9   180.00  15.16700   2 ;    C10-   C11-   C12-    S4
   754    755    756    771      9   180.00  15.16700   2 ;    C10-   C11-   C12-   C25
   755    754    753    772      9   180.00  15.16700   2 ;    C11-   C10-    C9-   C26
   755    756    757    758      9   180.00   1.67360   2 ;    C11-   C12-    S4-   C13
   755    756    771    772      9   180.00  15.16700   2 ;    C11-   C12-   C25-   C26
   755    756    771    793      9   180.00  15.16700   2 ;    C11-   C12-   C25-   H17
   756    755    754    782      9   180.00  15.16700   2 ;    C12-   C11-   C10-    H6
   756    757    758    759      9   180.00   1.67360   2 ;    C12-    S4-   C13-   C14
   756    757    758    770      9   180.00   1.67360   2 ;    C12-    S4-   C13-   C24
   756    771    772    794      9   180.00  15.16700   2 ;    C12-   C25-   C26-   H18
   757    756    755    783      9   180.00  15.16700   2 ;     S4-   C12-   C11-    H7
   757    756    771    772      9   180.00  15.16700   2 ;     S4-   C12-   C25-   C26
   757    756    771    793      9   180.00  15.16700   2 ;     S4-   C12-   C25-   H17
   757    758    759    760      9   180.00  15.16700   2 ;     S4-   C13-   C14-   C15
   757    758    759    784      9   180.00  15.16700   2 ;     S4-   C13-   C14-    H8
   757    758    770    769      9   180.00  15.16700   2 ;     S4-   C13-   C24-   C23
   757    758    770    792      9   180.00  15.16700   2 ;     S4-   C13-   C24-   H16
   758    757    756    771      9   180.00   1.67360   2 ;    C13-    S4-   C12-   C25
   758    759    760    761      9   180.00  15.16700   2 ;    C13-   C14-   C15-   C16
   758    759    760    785      9   180.00  15.16700   2 ;    C13-   C14-   C15-    H9
   758    770    769    761      9   180.00  15.16700   2 ;    C13-   C24-   C23-   C16
   758    770    769    791      9   180.00  15.16700   2 ;    C13-   C24-   C23-   H15
   759    758    770    769      9   180.00  15.16700   2 ;    C14-   C13-   C24-   C23
   759    758    770    792      9   180.00  15.16700   2 ;    C14-   C13-   C24-   H16
   759    760    761    762      9   180.00  15.16700   2 ;    C14-   C15-   C16-    S5
   759    760    761    769      9   180.00  15.16700   2 ;    C14-   C15-   C16-   C23
   760    759    758    770      9   180.00  15.16700   2 ;    C15-   C14-   C13-   C24
   760    761    762    763      9   180.00   1.67360   2 ;    C15-   C16-    S5-   C17
   760    761    769    770      9   180.00  15.16700   2 ;    C15-   C16-   C23-   C24
   760    761    769    791      9   180.00  15.16700   2 ;    C15-   C16-   C23-   H15
   761    760    759    784      9   180.00  15.16700   2 ;    C16-   C15-   C14-    H8
   761    762    763    764      9   180.00   1.67360   2 ;    C16-    S5-   C17-   C18
   761    762    763    768      9   180.00   1.67360   2 ;    C16-    S5-   C17-   C22
   761    769    770    792      9   180.00  15.16700   2 ;    C16-   C23-   C24-   H16
   762    761    760    785      9   180.00  15.16700   2 ;     S5-   C16-   C15-    H9
   762    761    769    770      9   180.00  15.16700   2 ;     S5-   C16-   C23-   C24
   762    761    769    791      9   180.00  15.16700   2 ;     S5-   C16-   C23-   H15
   762    763    764    765      9   180.00  15.16700   2 ;     S5-   C17-   C18-   C19
   762    763    764    786      9   180.00  15.16700   2 ;     S5-   C17-   C18-   H10
   762    763    768    767      9   180.00  15.16700   2 ;     S5-   C17-   C22-   C21
   762    763    768    790      9   180.00  15.16700   2 ;     S5-   C17-   C22-   H14
   763    762    761    769      9   180.00   1.67360   2 ;    C17-    S5-   C16-   C23
   763    764    765    766      9   180.00  15.16700   2 ;    C17-   C18-   C19-   C20
   763    764    765    787      9   180.00  15.16700   2 ;    C17-   C18-   C19-   H11
   763    768    767    766      9   180.00  15.16700   2 ;    C17-   C22-   C21-   C20
   763    768    767    789      9   180.00  15.16700   2 ;    C17-   C22-   C21-   H13
   764    763    768    767      9   180.00  15.16700   2 ;    C18-   C17-   C22-   C21
   764    763    768    790      9   180.00  15.16700   2 ;    C18-   C17-   C22-   H14
   764    765    766    767      9   180.00  15.16700   2 ;    C18-   C19-   C20-   C21
   764    765    766    788      9   180.00  15.16700   2 ;    C18-   C19-   C20-   H12
   765    764    763    768      9   180.00  15.16700   2 ;    C19-   C18-   C17-   C22
   765    766    767    768      9   180.00  15.16700   2 ;    C19-   C20-   C21-   C22
   765    766    767    789      9   180.00  15.16700   2 ;    C19-   C20-   C21-   H13
   766    765    764    786      9   180.00  15.16700   2 ;    C20-   C19-   C18-   H10
   766    767    768    790      9   180.00  15.16700   2 ;    C20-   C21-   C22-   H14
   767    766    765    787      9   180.00  15.16700   2 ;    C21-   C20-   C19-   H11
   768    763    764    786      9   180.00  15.16700   2 ;    C22-   C17-   C18-   H10
   768    767    766    788      9   180.00  15.16700   2 ;    C22-   C21-   C20-   H12
   769    761    760    785      9   180.00  15.16700   2 ;    C23-   C16-   C15-    H9
   770    758    759    784      9   180.00  15.16700   2 ;    C24-   C13-   C14-    H8
   771    756    755    783      9   180.00  15.16700   2 ;    C25-   C12-   C11-    H7
   772    753    754    782      9   180.00  15.16700   2 ;    C26-    C9-   C10-    H6
   773    751    750    781      9   180.00  15.16700   2 ;    C27-    C8-    C7-    H5
   774    748    749    780      9   180.00  15.16700   2 ;    C28-    C5-    C6-    H4
   775    746    745    779      9   180.00  15.16700   2 ;    C29-    C4-    C3-    H3
   776    743    742    777      9   180.00   0.48116   2 ;    C30-    C1-    S1-    H1
   776    743    744    778      9   180.00  15.16700   2 ;    C30-    C1-    C2-    H2
   778    744    745    779      9   180.00  15.16700   2 ;     H2-    C2-    C3-    H3
   780    749    750    781      9   180.00  15.16700   2 ;     H4-    C6-    C7-    H5
   782    754    755    783      9   180.00  15.16700   2 ;     H6-   C10-   C11-    H7
   784    759    760    785      9   180.00  15.16700   2 ;     H8-   C14-   C15-    H9
   786    764    765    787      9   180.00  15.16700   2 ;    H10-   C18-   C19-   H11
   787    765    766    788      9   180.00  15.16700   2 ;    H11-   C19-   C20-   H12
   788    766    767    789      9   180.00  15.16700   2 ;    H12-   C20-   C21-   H13
   789    767    768    790      9   180.00  15.16700   2 ;    H13-   C21-   C22-   H14
   791    769    770    792      9   180.00  15.16700   2 ;    H15-   C23-   C24-   H16
   793    771    772    794      9   180.00  15.16700   2 ;    H17-   C25-   C26-   H18
   795    773    774    796      9   180.00  15.16700   2 ;    H19-   C27-   C28-   H20
   797    775    776    798      9   180.00  15.16700   2 ;    H21-   C29-   C30-   H22
   799    800    801    802      9   180.00  15.16700   2 ;     S1-    C1-    C2-    C3
   799    800    801    835      9   180.00  15.16700   2 ;     S1-    C1-    C2-    H2
   799    800    833    832      9   180.00  15.16700   2 ;     S1-    C1-   C30-   C29
   799    800    833    855      9   180.00  15.16700   2 ;     S1-    C1-   C30-   H22
   800    801    802    803      9   180.00  15.16700   2 ;     C1-    C2-    C3-    C4
   800    801    802    836      9   180.00  15.16700   2 ;     C1-    C2-    C3-    H3
   800    833    832    803      9   180.00  15.16700   2 ;     C1-   C30-   C29-    C4
   800    833    832    854      9   180.00  15.16700   2 ;     C1-   C30-   C29-   H21
   801    800    799    834      9   180.00   0.48116   2 ;     C2-    C1-    S1-    H1
   801    800    833    832      9   180.00  15.16700   2 ;     C2-    C1-   C30-   C29
   801    800    833    855      9   180.00  15.16700   2 ;     C2-    C1-   C30-   H22
   801    802    803    804      9   180.00  15.16700   2 ;     C2-    C3-    C4-    S2
   801    802    803    832      9   180.00  15.16700   2 ;     C2-    C3-    C4-   C29
   802    801    800    833      9   180.00  15.16700   2 ;     C3-    C2-    C1-   C30
   802    803    804    805      9   180.00   1.67360   2 ;     C3-    C4-    S2-    C5
   802    803    832    833      9   180.00  15.16700   2 ;     C3-    C4-   C29-   C30
   802    803    832    854      9   180.00  15.16700   2 ;     C3-    C4-   C29-   H21
   803    802    801    835      9   180.00  15.16700   2 ;     C4-    C3-    C2-    H2
   803    804    805    806      9   180.00   1.67360   2 ;     C4-    S2-    C5-    C6
   803    804    805    831      9   180.00   1.67360   2 ;     C4-    S2-    C5-   C28
   803    832    833    855      9   180.00  15.16700   2 ;     C4-   C29-   C30-   H22
   804    803    802    836      9   180.00  15.16700   2 ;     S2-    C4-    C3-    H3
   804    803    832    833      9   180.00  15.16700   2 ;     S2-    C4-   C29-   C30
   804    803    832    854      9   180.00  15.16700   2 ;     S2-    C4-   C29-   H21
   804    805    806    807      9   180.00  15.16700   2 ;     S2-    C5-    C6-    C7
   804    805    806    837      9   180.00  15.16700   2 ;     S2-    C5-    C6-    H4
   804    805    831    830      9   180.00  15.16700   2 ;     S2-    C5-   C28-   C27
   804    805    831    853      9   180.00  15.16700   2 ;     S2-    C5-   C28-   H20
   805    804    803    832      9   180.00   1.67360   2 ;     C5-    S2-    C4-   C29
   805    806    807    808      9   180.00  15.16700   2 ;     C5-    C6-    C7-    C8
   805    806    807    838      9   180.00  15.16700   2 ;     C5-    C6-    C7-    H5
   805    831    830    808      9   180.00  15.16700   2 ;     C5-   C28-   C27-    C8
   805    831    830    852      9   180.00  15.16700   2 ;     C5-   C28-   C27-   H19
   806    805    831    830      9   180.00  15.16700   2 ;     C6-    C5-   C28-   C27
   806    805    831    853      9   180.00  15.16700   2 ;     C6-    C5-   C28-   H20
   806    807    808    809      9   180.00  15.16700   2 ;     C6-    C7-    C8-    S3
   806    807    808    830      9   180.00  15.16700   2 ;     C6-    C7-    C8-   C27
   807    806    805    831      9   180.00  15.16700   2 ;     C7-    C6-    C5-   C28
   807    808    809    810      9   180.00   1.67360   2 ;     C7-    C8-    S3-    C9
   807    808    830    831      9   180.00  15.16700   2 ;     C7-    C8-   C27-   C28
   807    808    830    852      9   180.00  15.16700   2 ;     C7-    C8-   C27-   H19
   808    807    806    837      9   180.00  15.16700   2 ;     C8-    C7-    C6-    H4
   808    809    810    811      9   180.00   1.67360   2 ;     C8-    S3-    C9-   C10
   808    809    810    829      9   180.00   1.67360   2 ;     C8-    S3-    C9-   C26
   808    830    831    853      9   180.00  15.16700   2 ;     C8-   C27-   C28-   H20
   809    808    807    838      9   180.00  15.16700   2 ;     S3-    C8-    C7-    H5
   809    808    830    831      9   180.00  15.16700   2 ;     S3-    C8-   C27-   C28
   809    808    830    852      9   180.00  15.16700   2 ;     S3-    C8-   C27-   H19
   809    810    811    812      9   180.00  15.16700   2 ;     S3-    C9-   C10-   C11
   809    810    811    839      9   180.00  15.16700   2 ;     S3-    C9-   C10-    H6
   809    810    829    828      9   180.00  15.16700   2 ;     S3-    C9-   C26-   C25
   809    810    829    851      9   180.00  15.16700   2 ;     S3-    C9-   C26-   H18
   810    809    808    830      9   180.00   1.67360   2 ;     C9-    S3-    C8-   C27
   810    811    812    813      9   180.00  15.16700   2 ;     C9-   C10-   C11-   C12
   810    811    812    840      9   180.00  15.16700   2 ;     C9-   C10-   C11-    H7
   810    829    828    813      9   180.00  15.16700   2 ;     C9-   C26-   C25-   C12
   810    829    828    850      9   180.00  15.16700   2 ;     C9-   C26-   C25-   H17
   811    810    829    828      9   180.00  15.16700   2 ;    C10-    C9-   C26-   C25
   811    810    829    851      9   180.00  15.16700   2 ;    C10-    C9-   C26-   H18
   811    812    813    814      9   180.00  15.16700   2 ;    C10-   C11-   C12-    S4
   811    812    813    828      9   180.00  15.16700   2 ;    C10-   C11-   C12-   C25
   812    811    810    829      9   180.00  15.16700   2 ;    C11-   C10-    C9-   C26
   812    813    814    815      9   180.00   1.67360   2 ;    C11-   C12-    S4-   C13
   812    813    828    829      9   180.00  15.16700   2 ;    C11-   C12-   C25-   C26
   812    813    828    850      9   180.00  15.16700   2 ;    C11-   C12-   C25-   H17
   813    812    811    839      9   180.00  15.16700   2 ;    C12-   C11-   C10-    H6
   813    814    815    816      9   180.00   1.67360   2 ;    C12-    S4-   C13-   C14
   813    814    815    827      9   180.00   1.67360   2 ;    C12-    S4-   C13-   C24
   813    828    829    851      9   180.00  15.16700   2 ;    C12-   C25-   C26-   H18
   814    813    812    840      9   180.00  15.16700   2 ;     S4-   C12-   C11-    H7
   814    813    828    829      9   180.00  15.16700   2 ;     S4-   C12-   C25-   C26
   814    813    828    850      9   180.00  15.16700   2 ;     S4-   C12-   C25-   H17
   814    815    816    817      9   180.00  15.16700   2 ;     S4-   C13-   C14-   C15
   814    815    816    841      9   180.00  15.16700   2 ;     S4-   C13-   C14-    H8
   814    815    827    826      9   180.00  15.16700   2 ;     S4-   C13-   C24-   C23
   814    815    827    849      9   180.00  15.16700   2 ;     S4-   C13-   C24-   H16
   815    814    813    828      9   180.00   1.67360   2 ;    C13-    S4-   C12-   C25
   815    816    817    818      9   180.00  15.16700   2 ;    C13-   C14-   C15-   C16
   815    816    817    842      9   180.00  15.16700   2 ;    C13-   C14-   C15-    H9
   815    827    826    818      9   180.00  15.16700   2 ;    C13-   C24-   C23-   C16
   815    827    826    848      9   180.00  15.16700   2 ;    C13-   C24-   C23-   H15
   816    815    827    826      9   180.00  15.16700   2 ;    C14-   C13-   C24-   C23
   816    815    827    849      9   180.00  15.16700   2 ;    C14-   C13-   C24-   H16
   816    817    818    819      9   180.00  15.16700   2 ;    C14-   C15-   C16-    S5
   816    817    818    826      9   180.00  15.16700   2 ;    C14-   C15-   C16-   C23
   817    816    815    827      9   180.00  15.16700   2 ;    C15-   C14-   C13-   C24
   817    818    819    820      9   180.00   1.67360   2 ;    C15-   C16-    S5-   C17
   817    818    826    827      9   180.00  15.16700   2 ;    C15-   C16-   C23-   C24
   817    818    826    848      9   180.00  15.16700   2 ;    C15-   C16-   C23-   H15
   818    817    816    841      9   180.00  15.16700   2 ;    C16-   C15-   C14-    H8
   818    819    820    821      9   180.00   1.67360   2 ;    C16-    S5-   C17-   C18
   818    819    820    825      9   180.00   1.67360   2 ;    C16-    S5-   C17-   C22
   818    826    827    849      9   180.00  15.16700   2 ;    C16-   C23-   C24-   H16
   819    818    817    842      9   180.00  15.16700   2 ;     S5-   C16-   C15-    H9
   819    818    826    827      9   180.00  15.16700   2 ;     S5-   C16-   C23-   C24
   819    818    826    848      9   180.00  15.16700   2 ;     S5-   C16-   C23-   H15
   819    820    821    822      9   180.00  15.16700   2 ;     S5-   C17-   C18-   C19
   819    820    821    843      9   180.00  15.16700   2 ;     S5-   C17-   C18-   H10
   819    820    825    824      9   180.00  15.16700   2 ;     S5-   C17-   C22-   C21
   819    820    825    847      9   180.00  15.16700   2 ;     S5-   C17-   C22-   H14
   820    819    818    826      9   180.00   1.67360   2 ;    C17-    S5-   C16-   C23
   820    821    822    823      9   180.00  15.16700   2 ;    C17-   C18-   C19-   C20
   820    821    822    844      9   180.00  15.16700   2 ;    C17-   C18-   C19-   H11
   820    825    824    823      9   180.00  15.16700   2 ;    C17-   C22-   C21-   C20
   820    825    824    846      9   180.00  15.16700   2 ;    C17-   C22-   C21-   H13
   821    820    825    824      9   180.00  15.16700   2 ;    C18-   C17-   C22-   C21
   821    820    825    847      9   180.00  15.16700   2 ;    C18-   C17-   C22-   H14
   821    822    823    824      9   180.00  15.16700   2 ;    C18-   C19-   C20-   C21
   821    822    823    845      9   180.00  15.16700   2 ;    C18-   C19-   C20-   H12
   822    821    820    825      9   180.00  15.16700   2 ;    C19-   C18-   C17-   C22
   822    823    824    825      9   180.00  15.16700   2 ;    C19-   C20-   C21-   C22
   822    823    824    846      9   180.00  15.16700   2 ;    C19-   C20-   C21-   H13
   823    822    821    843      9   180.00  15.16700   2 ;    C20-   C19-   C18-   H10
   823    824    825    847      9   180.00  15.16700   2 ;    C20-   C21-   C22-   H14
   824    823    822    844      9   180.00  15.16700   2 ;    C21-   C20-   C19-   H11
   825    820    821    843      9   180.00  15.16700   2 ;    C22-   C17-   C18-   H10
   825    824    823    845      9   180.00  15.16700   2 ;    C22-   C21-   C20-   H12
   826    818    817    842      9   180.00  15.16700   2 ;    C23-   C16-   C15-    H9
   827    815    816    841      9   180.00  15.16700   2 ;    C24-   C13-   C14-    H8
   828    813    812    840      9   180.00  15.16700   2 ;    C25-   C12-   C11-    H7
   829    810    811    839      9   180.00  15.16700   2 ;    C26-    C9-   C10-    H6
   830    808    807    838      9   180.00  15.16700   2 ;    C27-    C8-    C7-    H5
   831    805    806    837      9   180.00  15.16700   2 ;    C28-    C5-    C6-    H4
   832    803    802    836      9   180.00  15.16700   2 ;    C29-    C4-    C3-    H3
   833    800    799    834      9   180.00   0.48116   2 ;    C30-    C1-    S1-    H1
   833    800    801    835      9   180.00  15.16700   2 ;    C30-    C1-    C2-    H2
   835    801    802    836      9   180.00  15.16700   2 ;     H2-    C2-    C3-    H3
   837    806    807    838      9   180.00  15.16700   2 ;     H4-    C6-    C7-    H5
   839    811    812    840      9   180.00  15.16700   2 ;     H6-   C10-   C11-    H7
   841    816    817    842      9   180.00  15.16700   2 ;     H8-   C14-   C15-    H9
   843    821    822    844      9   180.00  15.16700   2 ;    H10-   C18-   C19-   H11
   844    822    823    845      9   180.00  15.16700   2 ;    H11-   C19-   C20-   H12
   845    823    824    846      9   180.00  15.16700   2 ;    H12-   C20-   C21-   H13
   846    824    825    847      9   180.00  15.16700   2 ;    H13-   C21-   C22-   H14
   848    826    827    849      9   180.00  15.16700   2 ;    H15-   C23-   C24-   H16
   850    828    829    851      9   180.00  15.16700   2 ;    H17-   C25-   C26-   H18
   852    830    831    853      9   180.00  15.16700   2 ;    H19-   C27-   C28-   H20
   854    832    833    855      9   180.00  15.16700   2 ;    H21-   C29-   C30-   H22
   856    857    858    859      9   180.00  15.16700   2 ;     S1-    C1-    C2-    C3
   856    857    858    892      9   180.00  15.16700   2 ;     S1-    C1-    C2-    H2
   856    857    890    889      9   180.00  15.16700   2 ;     S1-    C1-   C30-   C29
   856    857    890    912      9   180.00  15.16700   2 ;     S1-    C1-   C30-   H22
   857    858    859    860      9   180.00  15.16700   2 ;     C1-    C2-    C3-    C4
   857    858    859    893      9   180.00  15.16700   2 ;     C1-    C2-    C3-    H3
   857    890    889    860      9   180.00  15.16700   2 ;     C1-   C30-   C29-    C4
   857    890    889    911      9   180.00  15.16700   2 ;     C1-   C30-   C29-   H21
   858    857    856    891      9   180.00   0.48116   2 ;     C2-    C1-    S1-    H1
   858    857    890    889      9   180.00  15.16700   2 ;     C2-    C1-   C30-   C29
   858    857    890    912      9   180.00  15.16700   2 ;     C2-    C1-   C30-   H22
   858    859    860    861      9   180.00  15.16700   2 ;     C2-    C3-    C4-    S2
   858    859    860    889      9   180.00  15.16700   2 ;     C2-    C3-    C4-   C29
   859    858    857    890      9   180.00  15.16700   2 ;     C3-    C2-    C1-   C30
   859    860    861    862      9   180.00   1.67360   2 ;     C3-    C4-    S2-    C5
   859    860    889    890      9   180.00  15.16700   2 ;     C3-    C4-   C29-   C30
   859    860    889    911      9   180.00  15.16700   2 ;     C3-    C4-   C29-   H21
   860    859    858    892      9   180.00  15.16700   2 ;     C4-    C3-    C2-    H2
   860    861    862    863      9   180.00   1.67360   2 ;     C4-    S2-    C5-    C6
   860    861    862    888      9   180.00   1.67360   2 ;     C4-    S2-    C5-   C28
   860    889    890    912      9   180.00  15.16700   2 ;     C4-   C29-   C30-   H22
   861    860    859    893      9   180.00  15.16700   2 ;     S2-    C4-    C3-    H3
   861    860    889    890      9   180.00  15.16700   2 ;     S2-    C4-   C29-   C30
   861    860    889    911      9   180.00  15.16700   2 ;     S2-    C4-   C29-   H21
   861    862    863    864      9   180.00  15.16700   2 ;     S2-    C5-    C6-    C7
   861    862    863    894      9   180.00  15.16700   2 ;     S2-    C5-    C6-    H4
   861    862    888    887      9   180.00  15.16700   2 ;     S2-    C5-   C28-   C27
   861    862    888    910      9   180.00  15.16700   2 ;     S2-    C5-   C28-   H20
   862    861    860    889      9   180.00   1.67360   2 ;     C5-    S2-    C4-   C29
   862    863    864    865      9   180.00  15.16700   2 ;     C5-    C6-    C7-    C8
   862    863    864    895      9   180.00  15.16700   2 ;     C5-    C6-    C7-    H5
   862    888    887    865      9   180.00  15.16700   2 ;     C5-   C28-   C27-    C8
   862    888    887    909      9   180.00  15.16700   2 ;     C5-   C28-   C27-   H19
   863    862    888    887      9   180.00  15.16700   2 ;     C6-    C5-   C28-   C27
   863    862    888    910      9   180.00  15.16700   2 ;     C6-    C5-   C28-   H20
   863    864    865    866      9   180.00  15.16700   2 ;     C6-    C7-    C8-    S3
   863    864    865    887      9   180.00  15.16700   2 ;     C6-    C7-    C8-   C27
   864    863    862    888      9   180.00  15.16700   2 ;     C7-    C6-    C5-   C28
   864    865    866    867      9   180.00   1.67360   2 ;     C7-    C8-    S3-    C9
   864    865    887    888      9   180.00  15.16700   2 ;     C7-    C8-   C27-   C28
   864    865    887    909      9   180.00  15.16700   2 ;     C7-    C8-   C27-   H19
   865    864    863    894      9   180.00  15.16700   2 ;     C8-    C7-    C6-    H4
   865    866    867    868      9   180.00   1.67360   2 ;     C8-    S3-    C9-   C10
   865    866    867    886      9   180.00   1.67360   2 ;     C8-    S3-    C9-   C26
   865    887    888    910      9   180.00  15.16700   2 ;     C8-   C27-   C28-   H20
   866    865    864    895      9   180.00  15.16700   2 ;     S3-    C8-    C7-    H5
   866    865    887    888      9   180.00  15.16700   2 ;     S3-    C8-   C27-   C28
   866    865    887    909      9   180.00  15.16700   2 ;     S3-    C8-   C27-   H19
   866    867    868    869      9   180.00  15.16700   2 ;     S3-    C9-   C10-   C11
   866    867    868    896      9   180.00  15.16700   2 ;     S3-    C9-   C10-    H6
   866    867    886    885      9   180.00  15.16700   2 ;     S3-    C9-   C26-   C25
   866    867    886    908      9   180.00  15.16700   2 ;     S3-    C9-   C26-   H18
   867    866    865    887      9   180.00   1.67360   2 ;     C9-    S3-    C8-   C27
   867    868    869    870      9   180.00  15.16700   2 ;     C9-   C10-   C11-   C12
   867    868    869    897      9   180.00  15.16700   2 ;     C9-   C10-   C11-    H7
   867    886    885    870      9   180.00  15.16700   2 ;     C9-   C26-   C25-   C12
   867    886    885    907      9   180.00  15.16700   2 ;     C9-   C26-   C25-   H17
   868    867    886    885      9   180.00  15.16700   2 ;    C10-    C9-   C26-   C25
   868    867    886    908      9   180.00  15.16700   2 ;    C10-    C9-   C26-   H18
   868    869    870    871      9   180.00  15.16700   2 ;    C10-   C11-   C12-    S4
   868    869    870    885      9   180.00  15.16700   2 ;    C10-   C11-   C12-   C25
   869    868    867    886      9   180.00  15.16700   2 ;    C11-   C10-    C9-   C26
   869    870    871    872      9   180.00   1.67360   2 ;    C11-   C12-    S4-   C13
   869    870    885    886      9   180.00  15.16700   2 ;    C11-   C12-   C25-   C26
   869    870    885    907      9   180.00  15.16700   2 ;    C11-   C12-   C25-   H17
   870    869    868    896      9   180.00  15.16700   2 ;    C12-   C11-   C10-    H6
   870    871    872    873      9   180.00   1.67360   2 ;    C12-    S4-   C13-   C14
   870    871    872    884      9   180.00   1.67360   2 ;    C12-    S4-   C13-   C24
   870    885    886    908      9   180.00  15.16700   2 ;    C12-   C25-   C26-   H18
   871    870    869    897      9   180.00  15.16700   2 ;     S4-   C12-   C11-    H7
   871    870    885    886      9   180.00  15.16700   2 ;     S4-   C12-   C25-   C26
   871    870    885    907      9   180.00  15.16700   2 ;     S4-   C12-   C25-   H17
   871    872    873    874      9   180.00  15.16700   2 ;     S4-   C13-   C14-   C15
   871    872    873    898      9   180.00  15.16700   2 ;     S4-   C13-   C14-    H8
   871    872    884    883      9   180.00  15.16700   2 ;     S4-   C13-   C24-   C23
   871    872    884    906      9   180.00  15.16700   2 ;     S4-   C13-   C24-   H16
   872    871    870    885      9   180.00   1.67360   2 ;    C13-    S4-   C12-   C25
   872    873    874    875      9   180.00  15.16700   2 ;    C13-   C14-   C15-   C16
   872    873    874    899      9   180.00  15.16700   2 ;    C13-   C14-   C15-    H9
   872    884    883    875      9   180.00  15.16700   2 ;    C13-   C24-   C23-   C16
   872    884    883    905      9   180.00  15.16700   2 ;    C13-   C24-   C23-   H15
   873    872    884    883      9   180.00  15.16700   2 ;    C14-   C13-   C24-   C23
   873    872    884    906      9   180.00  15.16700   2 ;    C14-   C13-   C24-   H16
   873    874    875    876      9   180.00  15.16700   2 ;    C14-   C15-   C16-    S5
   873    874    875    883      9   180.00  15.16700   2 ;    C14-   C15-   C16-   C23
   874    873    872    884      9   180.00  15.16700   2 ;    C15-   C14-   C13-   C24
   874    875    876    877      9   180.00   1.67360   2 ;    C15-   C16-    S5-   C17
   874    875    883    884      9   180.00  15.16700   2 ;    C15-   C16-   C23-   C24
   874    875    883    905      9   180.00  15.16700   2 ;    C15-   C16-   C23-   H15
   875    874    873    898      9   180.00  15.16700   2 ;    C16-   C15-   C14-    H8
   875    876    877    878      9   180.00   1.67360   2 ;    C16-    S5-   C17-   C18
   875    876    877    882      9   180.00   1.67360   2 ;    C16-    S5-   C17-   C22
   875    883    884    906      9   180.00  15.16700   2 ;    C16-   C23-   C24-   H16
   876    875    874    899      9   180.00  15.16700   2 ;     S5-   C16-   C15-    H9
   876    875    883    884      9   180.00  15.16700   2 ;     S5-   C16-   C23-   C24
   876    875    883    905      9   180.00  15.16700   2 ;     S5-   C16-   C23-   H15
   876    877    878    879      9   180.00  15.16700   2 ;     S5-   C17-   C18-   C19
   876    877    878    900      9   180.00  15.16700   2 ;     S5-   C17-   C18-   H10
   876    877    882    881      9   180.00  15.16700   2 ;     S5-   C17-   C22-   C21
   876    877    882    904      9   180.00  15.16700   2 ;     S5-   C17-   C22-   H14
   877    876    875    883      9   180.00   1.67360   2 ;    C17-    S5-   C16-   C23
   877    878    879    880      9   180.00  15.16700   2 ;    C17-   C18-   C19-   C20
   877    878    879    901      9   180.00  15.16700   2 ;    C17-   C18-   C19-   H11
   877    882    881    880      9   180.00  15.16700   2 ;    C17-   C22-   C21-   C20
   877    882    881    903      9   180.00  15.16700   2 ;    C17-   C22-   C21-   H13
   878    877    882    881      9   180.00  15.16700   2 ;    C18-   C17-   C22-   C21
   878    877    882    904      9   180.00  15.16700   2 ;    C18-   C17-   C22-   H14
   878    879    880    881      9   180.00  15.16700   2 ;    C18-   C19-   C20-   C21
   878    879    880    902      9   180.00  15.16700   2 ;    C18-   C19-   C20-   H12
   879    878    877    882      9   180.00  15.16700   2 ;    C19-   C18-   C17-   C22
   879    880    881    882      9   180.00  15.16700   2 ;    C19-   C20-   C21-   C22
   879    880    881    903      9   180.00  15.16700   2 ;    C19-   C20-   C21-   H13
   880    879    878    900      9   180.00  15.16700   2 ;    C20-   C19-   C18-   H10
   880    881    882    904      9   180.00  15.16700   2 ;    C20-   C21-   C22-   H14
   881    880    879    901      9   180.00  15.16700   2 ;    C21-   C20-   C19-   H11
   882    877    878    900      9   180.00  15.16700   2 ;    C22-   C17-   C18-   H10
   882    881    880    902      9   180.00  15.16700   2 ;    C22-   C21-   C20-   H12
   883    875    874    899      9   180.00  15.16700   2 ;    C23-   C16-   C15-    H9
   884    872    873    898      9   180.00  15.16700   2 ;    C24-   C13-   C14-    H8
   885    870    869    897      9   180.00  15.16700   2 ;    C25-   C12-   C11-    H7
   886    867    868    896      9   180.00  15.16700   2 ;    C26-    C9-   C10-    H6
   887    865    864    895      9   180.00  15.16700   2 ;    C27-    C8-    C7-    H5
   888    862    863    894      9   180.00  15.16700   2 ;    C28-    C5-    C6-    H4
   889    860    859    893      9   180.00  15.16700   2 ;    C29-    C4-    C3-    H3
   890    857    856    891      9   180.00   0.48116   2 ;    C30-    C1-    S1-    H1
   890    857    858    892      9   180.00  15.16700   2 ;    C30-    C1-    C2-    H2
   892    858    859    893      9   180.00  15.16700   2 ;     H2-    C2-    C3-    H3
   894    863    864    895      9   180.00  15.16700   2 ;     H4-    C6-    C7-    H5
   896    868    869    897      9   180.00  15.16700   2 ;     H6-   C10-   C11-    H7
   898    873    874    899      9   180.00  15.16700   2 ;     H8-   C14-   C15-    H9
   900    878    879    901      9   180.00  15.16700   2 ;    H10-   C18-   C19-   H11
   901    879    880    902      9   180.00  15.16700   2 ;    H11-   C19-   C20-   H12
   902    880    881    903      9   180.00  15.16700   2 ;    H12-   C20-   C21-   H13
   903    881    882    904      9   180.00  15.16700   2 ;    H13-   C21-   C22-   H14
   905    883    884    906      9   180.00  15.16700   2 ;    H15-   C23-   C24-   H16
   907    885    886    908      9   180.00  15.16700   2 ;    H17-   C25-   C26-   H18
   909    887    888    910      9   180.00  15.16700   2 ;    H19-   C27-   C28-   H20
   911    889    890    912      9   180.00  15.16700   2 ;    H21-   C29-   C30-   H22
   913    914    915    916      9   180.00  15.16700   2 ;     S1-    C1-    C2-    C3
   913    914    915    949      9   180.00  15.16700   2 ;     S1-    C1-    C2-    H2
   913    914    947    946      9   180.00  15.16700   2 ;     S1-    C1-   C30-   C29
   913    914    947    969      9   180.00  15.16700   2 ;     S1-    C1-   C30-   H22
   914    915    916    917      9   180.00  15.16700   2 ;     C1-    C2-    C3-    C4
   914    915    916    950      9   180.00  15.16700   2 ;     C1-    C2-    C3-    H3
   914    947    946    917      9   180.00  15.16700   2 ;     C1-   C30-   C29-    C4
   914    947    946    968      9   180.00  15.16700   2 ;     C1-   C30-   C29-   H21
   915    914    913    948      9   180.00   0.48116   2 ;     C2-    C1-    S1-    H1
   915    914    947    946      9   180.00  15.16700   2 ;     C2-    C1-   C30-   C29
   915    914    947    969      9   180.00  15.16700   2 ;     C2-    C1-   C30-   H22
   915    916    917    918      9   180.00  15.16700   2 ;     C2-    C3-    C4-    S2
   915    916    917    946      9   180.00  15.16700   2 ;     C2-    C3-    C4-   C29
   916    915    914    947      9   180.00  15.16700   2 ;     C3-    C2-    C1-   C30
   916    917    918    919      9   180.00   1.67360   2 ;     C3-    C4-    S2-    C5
   916    917    946    947      9   180.00  15.16700   2 ;     C3-    C4-   C29-   C30
   916    917    946    968      9   180.00  15.16700   2 ;     C3-    C4-   C29-   H21
   917    916    915    949      9   180.00  15.16700   2 ;     C4-    C3-    C2-    H2
   917    918    919    920      9   180.00   1.67360   2 ;     C4-    S2-    C5-    C6
   917    918    919    945      9   180.00   1.67360   2 ;     C4-    S2-    C5-   C28
   917    946    947    969      9   180.00  15.16700   2 ;     C4-   C29-   C30-   H22
   918    917    916    950      9   180.00  15.16700   2 ;     S2-    C4-    C3-    H3
   918    917    946    947      9   180.00  15.16700   2 ;     S2-    C4-   C29-   C30
   918    917    946    968      9   180.00  15.16700   2 ;     S2-    C4-   C29-   H21
   918    919    920    921      9   180.00  15.16700   2 ;     S2-    C5-    C6-    C7
   918    919    920    951      9   180.00  15.16700   2 ;     S2-    C5-    C6-    H4
   918    919    945    944      9   180.00  15.16700   2 ;     S2-    C5-   C28-   C27
   918    919    945    967      9   180.00  15.16700   2 ;     S2-    C5-   C28-   H20
   919    918    917    946      9   180.00   1.67360   2 ;     C5-    S2-    C4-   C29
   919    920    921    922      9   180.00  15.16700   2 ;     C5-    C6-    C7-    C8
   919    920    921    952      9   180.00  15.16700   2 ;     C5-    C6-    C7-    H5
   919    945    944    922      9   180.00  15.16700   2 ;     C5-   C28-   C27-    C8
   919    945    944    966      9   180.00  15.16700   2 ;     C5-   C28-   C27-   H19
   920    919    945    944      9   180.00  15.16700   2 ;     C6-    C5-   C28-   C27
   920    919    945    967      9   180.00  15.16700   2 ;     C6-    C5-   C28-   H20
   920    921    922    923      9   180.00  15.16700   2 ;     C6-    C7-    C8-    S3
   920    921    922    944      9   180.00  15.16700   2 ;     C6-    C7-    C8-   C27
   921    920    919    945      9   180.00  15.16700   2 ;     C7-    C6-    C5-   C28
   921    922    923    924      9   180.00   1.67360   2 ;     C7-    C8-    S3-    C9
   921    922    944    945      9   180.00  15.16700   2 ;     C7-    C8-   C27-   C28
   921    922    944    966      9   180.00  15.16700   2 ;     C7-    C8-   C27-   H19
   922    921    920    951      9   180.00  15.16700   2 ;     C8-    C7-    C6-    H4
   922    923    924    925      9   180.00   1.67360   2 ;     C8-    S3-    C9-   C10
   922    923    924    943      9   180.00   1.67360   2 ;     C8-    S3-    C9-   C26
   922    944    945    967      9   180.00  15.16700   2 ;     C8-   C27-   C28-   H20
   923    922    921    952      9   180.00  15.16700   2 ;     S3-    C8-    C7-    H5
   923    922    944    945      9   180.00  15.16700   2 ;     S3-    C8-   C27-   C28
   923    922    944    966      9   180.00  15.16700   2 ;     S3-    C8-   C27-   H19
   923    924    925    926      9   180.00  15.16700   2 ;     S3-    C9-   C10-   C11
   923    924    925    953      9   180.00  15.16700   2 ;     S3-    C9-   C10-    H6
   923    924    943    942      9   180.00  15.16700   2 ;     S3-    C9-   C26-   C25
   923    924    943    965      9   180.00  15.16700   2 ;     S3-    C9-   C26-   H18
   924    923    922    944      9   180.00   1.67360   2 ;     C9-    S3-    C8-   C27
   924    925    926    927      9   180.00  15.16700   2 ;     C9-   C10-   C11-   C12
   924    925    926    954      9   180.00  15.16700   2 ;     C9-   C10-   C11-    H7
   924    943    942    927      9   180.00  15.16700   2 ;     C9-   C26-   C25-   C12
   924    943    942    964      9   180.00  15.16700   2 ;     C9-   C26-   C25-   H17
   925    924    943    942      9   180.00  15.16700   2 ;    C10-    C9-   C26-   C25
   925    924    943    965      9   180.00  15.16700   2 ;    C10-    C9-   C26-   H18
   925    926    927    928      9   180.00  15.16700   2 ;    C10-   C11-   C12-    S4
   925    926    927    942      9   180.00  15.16700   2 ;    C10-   C11-   C12-   C25
   926    925    924    943      9   180.00  15.16700   2 ;    C11-   C10-    C9-   C26
   926    927    928    929      9   180.00   1.67360   2 ;    C11-   C12-    S4-   C13
   926    927    942    943      9   180.00  15.16700   2 ;    C11-   C12-   C25-   C26
   926    927    942    964      9   180.00  15.16700   2 ;    C11-   C12-   C25-   H17
   927    926    925    953      9   180.00  15.16700   2 ;    C12-   C11-   C10-    H6
   927    928    929    930      9   180.00   1.67360   2 ;    C12-    S4-   C13-   C14
   927    928    929    941      9   180.00   1.67360   2 ;    C12-    S4-   C13-   C24
   927    942    943    965      9   180.00  15.16700   2 ;    C12-   C25-   C26-   H18
   928    927    926    954      9   180.00  15.16700   2 ;     S4-   C12-   C11-    H7
   928    927    942    943      9   180.00  15.16700   2 ;     S4-   C12-   C25-   C26
   928    927    942    964      9   180.00  15.16700   2 ;     S4-   C12-   C25-   H17
   928    929    930    931      9   180.00  15.16700   2 ;     S4-   C13-   C14-   C15
   928    929    930    955      9   180.00  15.16700   2 ;     S4-   C13-   C14-    H8
   928    929    941    940      9   180.00  15.16700   2 ;     S4-   C13-   C24-   C23
   928    929    941    963      9   180.00  15.16700   2 ;     S4-   C13-   C24-   H16
   929    928    927    942      9   180.00   1.67360   2 ;    C13-    S4-   C12-   C25
   929    930    931    932      9   180.00  15.16700   2 ;    C13-   C14-   C15-   C16
   929    930    931    956      9   180.00  15.16700   2 ;    C13-   C14-   C15-    H9
   929    941    940    932      9   180.00  15.16700   2 ;    C13-   C24-   C23-   C16
   929    941    940    962      9   180.00  15.16700   2 ;    C13-   C24-   C23-   H15
   930    929    941    940      9   180.00  15.16700   2 ;    C14-   C13-   C24-   C23
   930    929    941    963      9   180.00  15.16700   2 ;    C14-   C13-   C24-   H16
   930    931    932    933      9   180.00  15.16700   2 ;    C14-   C15-   C16-    S5
   930    931    932    940      9   180.00  15.16700   2 ;    C14-   C15-   C16-   C23
   931    930    929    941      9   180.00  15.16700   2 ;    C15-   C14-   C13-   C24
   931    932    933    934      9   180.00   1.67360   2 ;    C15-   C16-    S5-   C17
   931    932    940    941      9   180.00  15.16700   2 ;    C15-   C16-   C23-   C24
   931    932    940    962      9   180.00  15.16700   2 ;    C15-   C16-   C23-   H15
   932    931    930    955      9   180.00  15.16700   2 ;    C16-   C15-   C14-    H8
   932    933    934    935      9   180.00   1.67360   2 ;    C16-    S5-   C17-   C18
   932    933    934    939      9   180.00   1.67360   2 ;    C16-    S5-   C17-   C22
   932    940    941    963      9   180.00  15.16700   2 ;    C16-   C23-   C24-   H16
   933    932    931    956      9   180.00  15.16700   2 ;     S5-   C16-   C15-    H9
   933    932    940    941      9   180.00  15.16700   2 ;     S5-   C16-   C23-   C24
   933    932    940    962      9   180.00  15.16700   2 ;     S5-   C16-   C23-   H15
   933    934    935    936      9   180.00  15.16700   2 ;     S5-   C17-   C18-   C19
   933    934    935    957      9   180.00  15.16700   2 ;     S5-   C17-   C18-   H10
   933    934    939    938      9   180.00  15.16700   2 ;     S5-   C17-   C22-   C21
   933    934    939    961      9   180.00  15.16700   2 ;     S5-   C17-   C22-   H14
   934    933    932    940      9   180.00   1.67360   2 ;    C17-    S5-   C16-   C23
   934    935    936    937      9   180.00  15.16700   2 ;    C17-   C18-   C19-   C20
   934    935    936    958      9   180.00  15.16700   2 ;    C17-   C18-   C19-   H11
   934    939    938    937      9   180.00  15.16700   2 ;    C17-   C22-   C21-   C20
   934    939    938    960      9   180.00  15.16700   2 ;    C17-   C22-   C21-   H13
   935    934    939    938      9   180.00  15.16700   2 ;    C18-   C17-   C22-   C21
   935    934    939    961      9   180.00  15.16700   2 ;    C18-   C17-   C22-   H14
   935    936    937    938      9   180.00  15.16700   2 ;    C18-   C19-   C20-   C21
   935    936    937    959      9   180.00  15.16700   2 ;    C18-   C19-   C20-   H12
   936    935    934    939      9   180.00  15.16700   2 ;    C19-   C18-   C17-   C22
   936    937    938    939      9   180.00  15.16700   2 ;    C19-   C20-   C21-   C22
   936    937    938    960      9   180.00  15.16700   2 ;    C19-   C20-   C21-   H13
   937    936    935    957      9   180.00  15.16700   2 ;    C20-   C19-   C18-   H10
   937    938    939    961      9   180.00  15.16700   2 ;    C20-   C21-   C22-   H14
   938    937    936    958      9   180.00  15.16700   2 ;    C21-   C20-   C19-   H11
   939    934    935    957      9   180.00  15.16700   2 ;    C22-   C17-   C18-   H10
   939    938    937    959      9   180.00  15.16700   2 ;    C22-   C21-   C20-   H12
   940    932    931    956      9   180.00  15.16700   2 ;    C23-   C16-   C15-    H9
   941    929    930    955      9   180.00  15.16700   2 ;    C24-   C13-   C14-    H8
   942    927    926    954      9   180.00  15.16700   2 ;    C25-   C12-   C11-    H7
   943    924    925    953      9   180.00  15.16700   2 ;    C26-    C9-   C10-    H6
   944    922    921    952      9   180.00  15.16700   2 ;    C27-    C8-    C7-    H5
   945    919    920    951      9   180.00  15.16700   2 ;    C28-    C5-    C6-    H4
   946    917    916    950      9   180.00  15.16700   2 ;    C29-    C4-    C3-    H3
   947    914    913    948      9   180.00   0.48116   2 ;    C30-    C1-    S1-    H1
   947    914    915    949      9   180.00  15.16700   2 ;    C30-    C1-    C2-    H2
   949    915    916    950      9   180.00  15.16700   2 ;     H2-    C2-    C3-    H3
   951    920    921    952      9   180.00  15.16700   2 ;     H4-    C6-    C7-    H5
   953    925    926    954      9   180.00  15.16700   2 ;     H6-   C10-   C11-    H7
   955    930    931    956      9   180.00  15.16700   2 ;     H8-   C14-   C15-    H9
   957    935    936    958      9   180.00  15.16700   2 ;    H10-   C18-   C19-   H11
   958    936    937    959      9   180.00  15.16700   2 ;    H11-   C19-   C20-   H12
   959    937    938    960      9   180.00  15.16700   2 ;    H12-   C20-   C21-   H13
   960    938    939    961      9   180.00  15.16700   2 ;    H13-   C21-   C22-   H14
   962    940    941    963      9   180.00  15.16700   2 ;    H15-   C23-   C24-   H16
   964    942    943    965      9   180.00  15.16700   2 ;    H17-   C25-   C26-   H18
   966    944    945    967      9   180.00  15.16700   2 ;    H19-   C27-   C28-   H20
   968    946    947    969      9   180.00  15.16700   2 ;    H21-   C29-   C30-   H22
   970    971    972    973      9   180.00  15.16700   2 ;     S1-    C1-    C2-    C3
   970    971    972   1006      9   180.00  15.16700   2 ;     S1-    C1-    C2-    H2
   970    971   1004   1003      9   180.00  15.16700   2 ;     S1-    C1-   C30-   C29
   970    971   1004   1026      9   180.00  15.16700   2 ;     S1-    C1-   C30-   H22
   971    972    973    974      9   180.00  15.16700   2 ;     C1-    C2-    C3-    C4
   971    972    973   1007      9   180.00  15.16700   2 ;     C1-    C2-    C3-    H3
   971   1004   1003    974      9   180.00  15.16700   2 ;     C1-   C30-   C29-    C4
   971   1004   1003   1025      9   180.00  15.16700   2 ;     C1-   C30-   C29-   H21
   972    971    970   1005      9   180.00   0.48116   2 ;     C2-    C1-    S1-    H1
   972    971   1004   1003      9   180.00  15.16700   2 ;     C2-    C1-   C30-   C29
   972    971   1004   1026      9   180.00  15.16700   2 ;     C2-    C1-   C30-   H22
   972    973    974    975      9   180.00  15.16700   2 ;     C2-    C3-    C4-    S2
   972    973    974   1003      9   180.00  15.16700   2 ;     C2-    C3-    C4-   C29
   973    972    971   1004      9   180.00  15.16700   2 ;     C3-    C2-    C1-   C30
   973    974    975    976      9   180.00   1.67360   2 ;     C3-    C4-    S2-    C5
   973    974   1003   1004      9   180.00  15.16700   2 ;     C3-    C4-   C29-   C30
   973    974   1003   1025      9   180.00  15.16700   2 ;     C3-    C4-   C29-   H21
   974    973    972   1006      9   180.00  15.16700   2 ;     C4-    C3-    C2-    H2
   974    975    976    977      9   180.00   1.67360   2 ;     C4-    S2-    C5-    C6
   974    975    976   1002      9   180.00   1.67360   2 ;     C4-    S2-    C5-   C28
   974   1003   1004   1026      9   180.00  15.16700   2 ;     C4-   C29-   C30-   H22
   975    974    973   1007      9   180.00  15.16700   2 ;     S2-    C4-    C3-    H3
   975    974   1003   1004      9   180.00  15.16700   2 ;     S2-    C4-   C29-   C30
   975    974   1003   1025      9   180.00  15.16700   2 ;     S2-    C4-   C29-   H21
   975    976    977    978      9   180.00  15.16700   2 ;     S2-    C5-    C6-    C7
   975    976    977   1008      9   180.00  15.16700   2 ;     S2-    C5-    C6-    H4
   975    976   1002   1001      9   180.00  15.16700   2 ;     S2-    C5-   C28-   C27
   975    976   1002   1024      9   180.00  15.16700   2 ;     S2-    C5-   C28-   H20
   976    975    974   1003      9   180.00   1.67360   2 ;     C5-    S2-    C4-   C29
   976    977    978    979      9   180.00  15.16700   2 ;     C5-    C6-    C7-    C8
   976    977    978   1009      9   180.00  15.16700   2 ;     C5-    C6-    C7-    H5
   976   1002   1001    979      9   180.00  15.16700   2 ;     C5-   C28-   C27-    C8
   976   1002   1001   1023      9   180.00  15.16700   2 ;     C5-   C28-   C27-   H19
   977    976   1002   1001      9   180.00  15.16700   2 ;     C6-    C5-   C28-   C27
   977    976   1002   1024      9   180.00  15.16700   2 ;     C6-    C5-   C28-   H20
   977    978    979    980      9   180.00  15.16700   2 ;     C6-    C7-    C8-    S3
   977    978    979   1001      9   180.00  15.16700   2 ;     C6-    C7-    C8-   C27
   978    977    976   1002      9   180.00  15.16700   2 ;     C7-    C6-    C5-   C28
   978    979    980    981      9   180.00   1.67360   2 ;     C7-    C8-    S3-    C9
   978    979   1001   1002      9   180.00  15.16700   2 ;     C7-    C8-   C27-   C28
   978    979   1001   1023      9   180.00  15.16700   2 ;     C7-    C8-   C27-   H19
   979    978    977   1008      9   180.00  15.16700   2 ;     C8-    C7-    C6-    H4
   979    980    981    982      9   180.00   1.67360   2 ;     C8-    S3-    C9-   C10
   979    980    981   1000      9   180.00   1.67360   2 ;     C8-    S3-    C9-   C26
   979   1001   1002   1024      9   180.00  15.16700   2 ;     C8-   C27-   C28-   H20
   980    979    978   1009      9   180.00  15.16700   2 ;     S3-    C8-    C7-    H5
   980    979   1001   1002      9   180.00  15.16700   2 ;     S3-    C8-   C27-   C28
   980    979   1001   1023      9   180.00  15.16700   2 ;     S3-    C8-   C27-   H19
   980    981    982    983      9   180.00  15.16700   2 ;     S3-    C9-   C10-   C11
   980    981    982   1010      9   180.00  15.16700   2 ;     S3-    C9-   C10-    H6
   980    981   1000    999      9   180.00  15.16700   2 ;     S3-    C9-   C26-   C25
   980    981   1000   1022      9   180.00  15.16700   2 ;     S3-    C9-   C26-   H18
   981    980    979   1001      9   180.00   1.67360   2 ;     C9-    S3-    C8-   C27
   981    982    983    984      9   180.00  15.16700   2 ;     C9-   C10-   C11-   C12
   981    982    983   1011      9   180.00  15.16700   2 ;     C9-   C10-   C11-    H7
   981   1000    999    984      9   180.00  15.16700   2 ;     C9-   C26-   C25-   C12
   981   1000    999   1021      9   180.00  15.16700   2 ;     C9-   C26-   C25-   H17
   982    981   1000    999      9   180.00  15.16700   2 ;    C10-    C9-   C26-   C25
   982    981   1000   1022      9   180.00  15.16700   2 ;    C10-    C9-   C26-   H18
   982    983    984    985      9   180.00  15.16700   2 ;    C10-   C11-   C12-    S4
   982    983    984    999      9   180.00  15.16700   2 ;    C10-   C11-   C12-   C25
   983    982    981   1000      9   180.00  15.16700   2 ;    C11-   C10-    C9-   C26
   983    984    985    986      9   180.00   1.67360   2 ;    C11-   C12-    S4-   C13
   983    984    999   1000      9   180.00  15.16700   2 ;    C11-   C12-   C25-   C26
   983    984    999   1021      9   180.00  15.16700   2 ;    C11-   C12-   C25-   H17
   984    983    982   1010      9   180.00  15.16700   2 ;    C12-   C11-   C10-    H6
   984    985    986    987      9   180.00   1.67360   2 ;    C12-    S4-   C13-   C14
   984    985    986    998      9   180.00   1.67360   2 ;    C12-    S4-   C13-   C24
   984    999   1000   1022      9   180.00  15.16700   2 ;    C12-   C25-   C26-   H18
   985    984    983   1011      9   180.00  15.16700   2 ;     S4-   C12-   C11-    H7
   985    984    999   1000      9   180.00  15.16700   2 ;     S4-   C12-   C25-   C26
   985    984    999   1021      9   180.00  15.16700   2 ;     S4-   C12-   C25-   H17
   985    986    987    988      9   180.00  15.16700   2 ;     S4-   C13-   C14-   C15
   985    986    987   1012      9   180.00  15.16700   2 ;     S4-   C13-   C14-    H8
   985    986    998    997      9   180.00  15.16700   2 ;     S4-   C13-   C24-   C23
   985    986    998   1020      9   180.00  15.16700   2 ;     S4-   C13-   C24-   H16
   986    985    984    999      9   180.00   1.67360   2 ;    C13-    S4-   C12-   C25
   986    987    988    989      9   180.00  15.16700   2 ;    C13-   C14-   C15-   C16
   986    987    988   1013      9   180.00  15.16700   2 ;    C13-   C14-   C15-    H9
   986    998    997    989      9   180.00  15.16700   2 ;    C13-   C24-   C23-   C16
   986    998    997   1019      9   180.00  15.16700   2 ;    C13-   C24-   C23-   H15
   987    986    998    997      9   180.00  15.16700   2 ;    C14-   C13-   C24-   C23
   987    986    998   1020      9   180.00  15.16700   2 ;    C14-   C13-   C24-   H16
   987    988    989    990      9   180.00  15.16700   2 ;    C14-   C15-   C16-    S5
   987    988    989    997      9   180.00  15.16700   2 ;    C14-   C15-   C16-   C23
   988    987    986    998      9   180.00  15.16700   2 ;    C15-   C14-   C13-   C24
   988    989    990    991      9   180.00   1.67360   2 ;    C15-   C16-    S5-   C17
   988    989    997    998      9   180.00  15.16700   2 ;    C15-   C16-   C23-   C24
   988    989    997   1019      9   180.00  15.16700   2 ;    C15-   C16-   C23-   H15
   989    988    987   1012      9   180.00  15.16700   2 ;    C16-   C15-   C14-    H8
   989    990    991    992      9   180.00   1.67360   2 ;    C16-    S5-   C17-   C18
   989    990    991    996      9   180.00   1.67360   2 ;    C16-    S5-   C17-   C22
   989    997    998   1020      9   180.00  15.16700   2 ;    C16-   C23-   C24-   H16
   990    989    988   1013      9   180.00  15.16700   2 ;     S5-   C16-   C15-    H9
   990    989    997    998      9   180.00  15.16700   2 ;     S5-   C16-   C23-   C24
   990    989    997   1019      9   180.00  15.16700   2 ;     S5-   C16-   C23-   H15
   990    991    992    993      9   180.00  15.16700   2 ;     S5-   C17-   C18-   C19
   990    991    992   1014      9   180.00  15.16700   2 ;     S5-   C17-   C18-   H10
   990    991    996    995      9   180.00  15.16700   2 ;     S5-   C17-   C22-   C21
   990    991    996   1018      9   180.00  15.16700   2 ;     S5-   C17-   C22-   H14
   991    990    989    997      9   180.00   1.67360   2 ;    C17-    S5-   C16-   C23
   991    992    993    994      9   180.00  15.16700   2 ;    C17-   C18-   C19-   C20
   991    992    993   1015      9   180.00  15.16700   2 ;    C17-   C18-   C19-   H11
   991    996    995    994      9   180.00  15.16700   2 ;    C17-   C22-   C21-   C20
   991    996    995   1017      9   180.00  15.16700   2 ;    C17-   C22-   C21-   H13
   992    991    996    995      9   180.00  15.16700   2 ;    C18-   C17-   C22-   C21
   992    991    996   1018      9   180.00  15.16700   2 ;    C18-   C17-   C22-   H14
   992    993    994    995      9   180.00  15.16700   2 ;    C18-   C19-   C20-   C21
   992    993    994   1016      9   180.00  15.16700   2 ;    C18-   C19-   C20-   H12
   993    992    991    996      9   180.00  15.16700   2 ;    C19-   C18-   C17-   C22
   993    994    995    996      9   180.00  15.16700   2 ;    C19-   C20-   C21-   C22
   993    994    995   1017      9   180.00  15.16700   2 ;    C19-   C20-   C21-   H13
   994    993    992   1014      9   180.00  15.16700   2 ;    C20-   C19-   C18-   H10
   994    995    996   1018      9   180.00  15.16700   2 ;    C20-   C21-   C22-   H14
   995    994    993   1015      9   180.00  15.16700   2 ;    C21-   C20-   C19-   H11
   996    991    992   1014      9   180.00  15.16700   2 ;    C22-   C17-   C18-   H10
   996    995    994   1016      9   180.00  15.16700   2 ;    C22-   C21-   C20-   H12
   997    989    988   1013      9   180.00  15.16700   2 ;    C23-   C16-   C15-    H9
   998    986    987   1012      9   180.00  15.16700   2 ;    C24-   C13-   C14-    H8
   999    984    983   1011      9   180.00  15.16700   2 ;    C25-   C12-   C11-    H7
  1000    981    982   1010      9   180.00  15.16700   2 ;    C26-    C9-   C10-    H6
  1001    979    978   1009      9   180.00  15.16700   2 ;    C27-    C8-    C7-    H5
  1002    976    977   1008      9   180.00  15.16700   2 ;    C28-    C5-    C6-    H4
  1003    974    973   1007      9   180.00  15.16700   2 ;    C29-    C4-    C3-    H3
  1004    971    970   1005      9   180.00   0.48116   2 ;    C30-    C1-    S1-    H1
  1004    971    972   1006      9   180.00  15.16700   2 ;    C30-    C1-    C2-    H2
  1006    972    973   1007      9   180.00  15.16700   2 ;     H2-    C2-    C3-    H3
  1008    977    978   1009      9   180.00  15.16700   2 ;     H4-    C6-    C7-    H5
  1010    982    983   1011      9   180.00  15.16700   2 ;     H6-   C10-   C11-    H7
  1012    987    988   1013      9   180.00  15.16700   2 ;     H8-   C14-   C15-    H9
  1014    992    993   1015      9   180.00  15.16700   2 ;    H10-   C18-   C19-   H11
  1015    993    994   1016      9   180.00  15.16700   2 ;    H11-   C19-   C20-   H12
  1016    994    995   1017      9   180.00  15.16700   2 ;    H12-   C20-   C21-   H13
  1017    995    996   1018      9   180.00  15.16700   2 ;    H13-   C21-   C22-   H14
  1019    997    998   1020      9   180.00  15.16700   2 ;    H15-   C23-   C24-   H16
  1021    999   1000   1022      9   180.00  15.16700   2 ;    H17-   C25-   C26-   H18
  1023   1001   1002   1024      9   180.00  15.16700   2 ;    H19-   C27-   C28-   H20
  1025   1003   1004   1026      9   180.00  15.16700   2 ;    H21-   C29-   C30-   H22
  1027   1028   1029   1030      9   180.00  15.16700   2 ;     S1-    C1-    C2-    C3
  1027   1028   1029   1063      9   180.00  15.16700   2 ;     S1-    C1-    C2-    H2
  1027   1028   1061   1060      9   180.00  15.16700   2 ;     S1-    C1-   C30-   C29
  1027   1028   1061   1083      9   180.00  15.16700   2 ;     S1-    C1-   C30-   H22
  1028   1029   1030   1031      9   180.00  15.16700   2 ;     C1-    C2-    C3-    C4
  1028   1029   1030   1064      9   180.00  15.16700   2 ;     C1-    C2-    C3-    H3
  1028   1061   1060   1031      9   180.00  15.16700   2 ;     C1-   C30-   C29-    C4
  1028   1061   1060   1082      9   180.00  15.16700   2 ;     C1-   C30-   C29-   H21
  1029   1028   1027   1062      9   180.00   0.48116   2 ;     C2-    C1-    S1-    H1
  1029   1028   1061   1060      9   180.00  15.16700   2 ;     C2-    C1-   C30-   C29
  1029   1028   1061   1083      9   180.00  15.16700   2 ;     C2-    C1-   C30-   H22
  1029   1030   1031   1032      9   180.00  15.16700   2 ;     C2-    C3-    C4-    S2
  1029   1030   1031   1060      9   180.00  15.16700   2 ;     C2-    C3-    C4-   C29
  1030   1029   1028   1061      9   180.00  15.16700   2 ;     C3-    C2-    C1-   C30
  1030   1031   1032   1033      9   180.00   1.67360   2 ;     C3-    C4-    S2-    C5
  1030   1031   1060   1061      9   180.00  15.16700   2 ;     C3-    C4-   C29-   C30
  1030   1031   1060   1082      9   180.00  15.16700   2 ;     C3-    C4-   C29-   H21
  1031   1030   1029   1063      9   180.00  15.16700   2 ;     C4-    C3-    C2-    H2
  1031   1032   1033   1034      9   180.00   1.67360   2 ;     C4-    S2-    C5-    C6
  1031   1032   1033   1059      9   180.00   1.67360   2 ;     C4-    S2-    C5-   C28
  1031   1060   1061   1083      9   180.00  15.16700   2 ;     C4-   C29-   C30-   H22
  1032   1031   1030   1064      9   180.00  15.16700   2 ;     S2-    C4-    C3-    H3
  1032   1031   1060   1061      9   180.00  15.16700   2 ;     S2-    C4-   C29-   C30
  1032   1031   1060   1082      9   180.00  15.16700   2 ;     S2-    C4-   C29-   H21
  1032   1033   1034   1035      9   180.00  15.16700   2 ;     S2-    C5-    C6-    C7
  1032   1033   1034   1065      9   180.00  15.16700   2 ;     S2-    C5-    C6-    H4
  1032   1033   1059   1058      9   180.00  15.16700   2 ;     S2-    C5-   C28-   C27
  1032   1033   1059   1081      9   180.00  15.16700   2 ;     S2-    C5-   C28-   H20
  1033   1032   1031   1060      9   180.00   1.67360   2 ;     C5-    S2-    C4-   C29
  1033   1034   1035   1036      9   180.00  15.16700   2 ;     C5-    C6-    C7-    C8
  1033   1034   1035   1066      9   180.00  15.16700   2 ;     C5-    C6-    C7-    H5
  1033   1059   1058   1036      9   180.00  15.16700   2 ;     C5-   C28-   C27-    C8
  1033   1059   1058   1080      9   180.00  15.16700   2 ;     C5-   C28-   C27-   H19
  1034   1033   1059   1058      9   180.00  15.16700   2 ;     C6-    C5-   C28-   C27
  1034   1033   1059   1081      9   180.00  15.16700   2 ;     C6-    C5-   C28-   H20
  1034   1035   1036   1037      9   180.00  15.16700   2 ;     C6-    C7-    C8-    S3
  1034   1035   1036   1058      9   180.00  15.16700   2 ;     C6-    C7-    C8-   C27
  1035   1034   1033   1059      9   180.00  15.16700   2 ;     C7-    C6-    C5-   C28
  1035   1036   1037   1038      9   180.00   1.67360   2 ;     C7-    C8-    S3-    C9
  1035   1036   1058   1059      9   180.00  15.16700   2 ;     C7-    C8-   C27-   C28
  1035   1036   1058   1080      9   180.00  15.16700   2 ;     C7-    C8-   C27-   H19
  1036   1035   1034   1065      9   180.00  15.16700   2 ;     C8-    C7-    C6-    H4
  1036   1037   1038   1039      9   180.00   1.67360   2 ;     C8-    S3-    C9-   C10
  1036   1037   1038   1057      9   180.00   1.67360   2 ;     C8-    S3-    C9-   C26
  1036   1058   1059   1081      9   180.00  15.16700   2 ;     C8-   C27-   C28-   H20
  1037   1036   1035   1066      9   180.00  15.16700   2 ;     S3-    C8-    C7-    H5
  1037   1036   1058   1059      9   180.00  15.16700   2 ;     S3-    C8-   C27-   C28
  1037   1036   1058   1080      9   180.00  15.16700   2 ;     S3-    C8-   C27-   H19
  1037   1038   1039   1040      9   180.00  15.16700   2 ;     S3-    C9-   C10-   C11
  1037   1038   1039   1067      9   180.00  15.16700   2 ;     S3-    C9-   C10-    H6
  1037   1038   1057   1056      9   180.00  15.16700   2 ;     S3-    C9-   C26-   C25
  1037   1038   1057   1079      9   180.00  15.16700   2 ;     S3-    C9-   C26-   H18
  1038   1037   1036   1058      9   180.00   1.67360   2 ;     C9-    S3-    C8-   C27
  1038   1039   1040   1041      9   180.00  15.16700   2 ;     C9-   C10-   C11-   C12
  1038   1039   1040   1068      9   180.00  15.16700   2 ;     C9-   C10-   C11-    H7
  1038   1057   1056   1041      9   180.00  15.16700   2 ;     C9-   C26-   C25-   C12
  1038   1057   1056   1078      9   180.00  15.16700   2 ;     C9-   C26-   C25-   H17
  1039   1038   1057   1056      9   180.00  15.16700   2 ;    C10-    C9-   C26-   C25
  1039   1038   1057   1079      9   180.00  15.16700   2 ;    C10-    C9-   C26-   H18
  1039   1040   1041   1042      9   180.00  15.16700   2 ;    C10-   C11-   C12-    S4
  1039   1040   1041   1056      9   180.00  15.16700   2 ;    C10-   C11-   C12-   C25
  1040   1039   1038   1057      9   180.00  15.16700   2 ;    C11-   C10-    C9-   C26
  1040   1041   1042   1043      9   180.00   1.67360   2 ;    C11-   C12-    S4-   C13
  1040   1041   1056   1057      9   180.00  15.16700   2 ;    C11-   C12-   C25-   C26
  1040   1041   1056   1078      9   180.00  15.16700   2 ;    C11-   C12-   C25-   H17
  1041   1040   1039   1067      9   180.00  15.16700   2 ;    C12-   C11-   C10-    H6
  1041   1042   1043   1044      9   180.00   1.67360   2 ;    C12-    S4-   C13-   C14
  1041   1042   1043   1055      9   180.00   1.67360   2 ;    C12-    S4-   C13-   C24
  1041   1056   1057   1079      9   180.00  15.16700   2 ;    C12-   C25-   C26-   H18
  1042   1041   1040   1068      9   180.00  15.16700   2 ;     S4-   C12-   C11-    H7
  1042   1041   1056   1057      9   180.00  15.16700   2 ;     S4-   C12-   C25-   C26
  1042   1041   1056   1078      9   180.00  15.16700   2 ;     S4-   C12-   C25-   H17
  1042   1043   1044   1045      9   180.00  15.16700   2 ;     S4-   C13-   C14-   C15
  1042   1043   1044   1069      9   180.00  15.16700   2 ;     S4-   C13-   C14-    H8
  1042   1043   1055   1054      9   180.00  15.16700   2 ;     S4-   C13-   C24-   C23
  1042   1043   1055   1077      9   180.00  15.16700   2 ;     S4-   C13-   C24-   H16
  1043   1042   1041   1056      9   180.00   1.67360   2 ;    C13-    S4-   C12-   C25
  1043   1044   1045   1046      9   180.00  15.16700   2 ;    C13-   C14-   C15-   C16
  1043   1044   1045   1070      9   180.00  15.16700   2 ;    C13-   C14-   C15-    H9
  1043   1055   1054   1046      9   180.00  15.16700   2 ;    C13-   C24-   C23-   C16
  1043   1055   1054   1076      9   180.00  15.16700   2 ;    C13-   C24-   C23-   H15
  1044   1043   1055   1054      9   180.00  15.16700   2 ;    C14-   C13-   C24-   C23
  1044   1043   1055   1077      9   180.00  15.16700   2 ;    C14-   C13-   C24-   H16
  1044   1045   1046   1047      9   180.00  15.16700   2 ;    C14-   C15-   C16-    S5
  1044   1045   1046   1054      9   180.00  15.16700   2 ;    C14-   C15-   C16-   C23
  1045   1044   1043   1055      9   180.00  15.16700   2 ;    C15-   C14-   C13-   C24
  1045   1046   1047   1048      9   180.00   1.67360   2 ;    C15-   C16-    S5-   C17
  1045   1046   1054   1055      9   180.00  15.16700   2 ;    C15-   C16-   C23-   C24
  1045   1046   1054   1076      9   180.00  15.16700   2 ;    C15-   C16-   C23-   H15
  1046   1045   1044   1069      9   180.00  15.16700   2 ;    C16-   C15-   C14-    H8
  1046   1047   1048   1049      9   180.00   1.67360   2 ;    C16-    S5-   C17-   C18
  1046   1047   1048   1053      9   180.00   1.67360   2 ;    C16-    S5-   C17-   C22
  1046   1054   1055   1077      9   180.00  15.16700   2 ;    C16-   C23-   C24-   H16
  1047   1046   1045   1070      9   180.00  15.16700   2 ;     S5-   C16-   C15-    H9
  1047   1046   1054   1055      9   180.00  15.16700   2 ;     S5-   C16-   C23-   C24
  1047   1046   1054   1076      9   180.00  15.16700   2 ;     S5-   C16-   C23-   H15
  1047   1048   1049   1050      9   180.00  15.16700   2 ;     S5-   C17-   C18-   C19
  1047   1048   1049   1071      9   180.00  15.16700   2 ;     S5-   C17-   C18-   H10
  1047   1048   1053   1052      9   180.00  15.16700   2 ;     S5-   C17-   C22-   C21
  1047   1048   1053   1075      9   180.00  15.16700   2 ;     S5-   C17-   C22-   H14
  1048   1047   1046   1054      9   180.00   1.67360   2 ;    C17-    S5-   C16-   C23
  1048   1049   1050   1051      9   180.00  15.16700   2 ;    C17-   C18-   C19-   C20
  1048   1049   1050   1072      9   180.00  15.16700   2 ;    C17-   C18-   C19-   H11
  1048   1053   1052   1051      9   180.00  15.16700   2 ;    C17-   C22-   C21-   C20
  1048   1053   1052   1074      9   180.00  15.16700   2 ;    C17-   C22-   C21-   H13
  1049   1048   1053   1052      9   180.00  15.16700   2 ;    C18-   C17-   C22-   C21
  1049   1048   1053   1075      9   180.00  15.16700   2 ;    C18-   C17-   C22-   H14
  1049   1050   1051   1052      9   180.00  15.16700   2 ;    C18-   C19-   C20-   C21
  1049   1050   1051   1073      9   180.00  15.16700   2 ;    C18-   C19-   C20-   H12
  1050   1049   1048   1053      9   180.00  15.16700   2 ;    C19-   C18-   C17-   C22
  1050   1051   1052   1053      9   180.00  15.16700   2 ;    C19-   C20-   C21-   C22
  1050   1051   1052   1074      9   180.00  15.16700   2 ;    C19-   C20-   C21-   H13
  1051   1050   1049   1071      9   180.00  15.16700   2 ;    C20-   C19-   C18-   H10
  1051   1052   1053   1075      9   180.00  15.16700   2 ;    C20-   C21-   C22-   H14
  1052   1051   1050   1072      9   180.00  15.16700   2 ;    C21-   C20-   C19-   H11
  1053   1048   1049   1071      9   180.00  15.16700   2 ;    C22-   C17-   C18-   H10
  1053   1052   1051   1073      9   180.00  15.16700   2 ;    C22-   C21-   C20-   H12
  1054   1046   1045   1070      9   180.00  15.16700   2 ;    C23-   C16-   C15-    H9
  1055   1043   1044   1069      9   180.00  15.16700   2 ;    C24-   C13-   C14-    H8
  1056   1041   1040   1068      9   180.00  15.16700   2 ;    C25-   C12-   C11-    H7
  1057   1038   1039   1067      9   180.00  15.16700   2 ;    C26-    C9-   C10-    H6
  1058   1036   1035   1066      9   180.00  15.16700   2 ;    C27-    C8-    C7-    H5
  1059   1033   1034   1065      9   180.00  15.16700   2 ;    C28-    C5-    C6-    H4
  1060   1031   1030   1064      9   180.00  15.16700   2 ;    C29-    C4-    C3-    H3
  1061   1028   1027   1062      9   180.00   0.48116   2 ;    C30-    C1-    S1-    H1
  1061   1028   1029   1063      9   180.00  15.16700   2 ;    C30-    C1-    C2-    H2
  1063   1029   1030   1064      9   180.00  15.16700   2 ;     H2-    C2-    C3-    H3
  1065   1034   1035   1066      9   180.00  15.16700   2 ;     H4-    C6-    C7-    H5
  1067   1039   1040   1068      9   180.00  15.16700   2 ;     H6-   C10-   C11-    H7
  1069   1044   1045   1070      9   180.00  15.16700   2 ;     H8-   C14-   C15-    H9
  1071   1049   1050   1072      9   180.00  15.16700   2 ;    H10-   C18-   C19-   H11
  1072   1050   1051   1073      9   180.00  15.16700   2 ;    H11-   C19-   C20-   H12
  1073   1051   1052   1074      9   180.00  15.16700   2 ;    H12-   C20-   C21-   H13
  1074   1052   1053   1075      9   180.00  15.16700   2 ;    H13-   C21-   C22-   H14
  1076   1054   1055   1077      9   180.00  15.16700   2 ;    H15-   C23-   C24-   H16
  1078   1056   1057   1079      9   180.00  15.16700   2 ;    H17-   C25-   C26-   H18
  1080   1058   1059   1081      9   180.00  15.16700   2 ;    H19-   C27-   C28-   H20
  1082   1060   1061   1083      9   180.00  15.16700   2 ;    H21-   C29-   C30-   H22
  1084   1085   1086   1087      9   180.00  15.16700   2 ;     S1-    C1-    C2-    C3
  1084   1085   1086   1120      9   180.00  15.16700   2 ;     S1-    C1-    C2-    H2
  1084   1085   1118   1117      9   180.00  15.16700   2 ;     S1-    C1-   C30-   C29
  1084   1085   1118   1140      9   180.00  15.16700   2 ;     S1-    C1-   C30-   H22
  1085   1086   1087   1088      9   180.00  15.16700   2 ;     C1-    C2-    C3-    C4
  1085   1086   1087   1121      9   180.00  15.16700   2 ;     C1-    C2-    C3-    H3
  1085   1118   1117   1088      9   180.00  15.16700   2 ;     C1-   C30-   C29-    C4
  1085   1118   1117   1139      9   180.00  15.16700   2 ;     C1-   C30-   C29-   H21
  1086   1085   1084   1119      9   180.00   0.48116   2 ;     C2-    C1-    S1-    H1
  1086   1085   1118   1117      9   180.00  15.16700   2 ;     C2-    C1-   C30-   C29
  1086   1085   1118   1140      9   180.00  15.16700   2 ;     C2-    C1-   C30-   H22
  1086   1087   1088   1089      9   180.00  15.16700   2 ;     C2-    C3-    C4-    S2
  1086   1087   1088   1117      9   180.00  15.16700   2 ;     C2-    C3-    C4-   C29
  1087   1086   1085   1118      9   180.00  15.16700   2 ;     C3-    C2-    C1-   C30
  1087   1088   1089   1090      9   180.00   1.67360   2 ;     C3-    C4-    S2-    C5
  1087   1088   1117   1118      9   180.00  15.16700   2 ;     C3-    C4-   C29-   C30
  1087   1088   1117   1139      9   180.00  15.16700   2 ;     C3-    C4-   C29-   H21
  1088   1087   1086   1120      9   180.00  15.16700   2 ;     C4-    C3-    C2-    H2
  1088   1089   1090   1091      9   180.00   1.67360   2 ;     C4-    S2-    C5-    C6
  1088   1089   1090   1116      9   180.00   1.67360   2 ;     C4-    S2-    C5-   C28
  1088   1117   1118   1140      9   180.00  15.16700   2 ;     C4-   C29-   C30-   H22
  1089   1088   1087   1121      9   180.00  15.16700   2 ;     S2-    C4-    C3-    H3
  1089   1088   1117   1118      9   180.00  15.16700   2 ;     S2-    C4-   C29-   C30
  1089   1088   1117   1139      9   180.00  15.16700   2 ;     S2-    C4-   C29-   H21
  1089   1090   1091   1092      9   180.00  15.16700   2 ;     S2-    C5-    C6-    C7
  1089   1090   1091   1122      9   180.00  15.16700   2 ;     S2-    C5-    C6-    H4
  1089   1090   1116   1115      9   180.00  15.16700   2 ;     S2-    C5-   C28-   C27
  1089   1090   1116   1138      9   180.00  15.16700   2 ;     S2-    C5-   C28-   H20
  1090   1089   1088   1117      9   180.00   1.67360   2 ;     C5-    S2-    C4-   C29
  1090   1091   1092   1093      9   180.00  15.16700   2 ;     C5-    C6-    C7-    C8
  1090   1091   1092   1123      9   180.00  15.16700   2 ;     C5-    C6-    C7-    H5
  1090   1116   1115   1093      9   180.00  15.16700   2 ;     C5-   C28-   C27-    C8
  1090   1116   1115   1137      9   180.00  15.16700   2 ;     C5-   C28-   C27-   H19
  1091   1090   1116   1115      9   180.00  15.16700   2 ;     C6-    C5-   C28-   C27
  1091   1090   1116   1138      9   180.00  15.16700   2 ;     C6-    C5-   C28-   H20
  1091   1092   1093   1094      9   180.00  15.16700   2 ;     C6-    C7-    C8-    S3
  1091   1092   1093   1115      9   180.00  15.16700   2 ;     C6-    C7-    C8-   C27
  1092   1091   1090   1116      9   180.00  15.16700   2 ;     C7-    C6-    C5-   C28
  1092   1093   1094   1095      9   180.00   1.67360   2 ;     C7-    C8-    S3-    C9
  1092   1093   1115   1116      9   180.00  15.16700   2 ;     C7-    C8-   C27-   C28
  1092   1093   1115   1137      9   180.00  15.16700   2 ;     C7-    C8-   C27-   H19
  1093   1092   1091   1122      9   180.00  15.16700   2 ;     C8-    C7-    C6-    H4
  1093   1094   1095   1096      9   180.00   1.67360   2 ;     C8-    S3-    C9-   C10
  1093   1094   1095   1114      9   180.00   1.67360   2 ;     C8-    S3-    C9-   C26
  1093   1115   1116   1138      9   180.00  15.16700   2 ;     C8-   C27-   C28-   H20
  1094   1093   1092   1123      9   180.00  15.16700   2 ;     S3-    C8-    C7-    H5
  1094   1093   1115   1116      9   180.00  15.16700   2 ;     S3-    C8-   C27-   C28
  1094   1093   1115   1137      9   180.00  15.16700   2 ;     S3-    C8-   C27-   H19
  1094   1095   1096   1097      9   180.00  15.16700   2 ;     S3-    C9-   C10-   C11
  1094   1095   1096   1124      9   180.00  15.16700   2 ;     S3-    C9-   C10-    H6
  1094   1095   1114   1113      9   180.00  15.16700   2 ;     S3-    C9-   C26-   C25
  1094   1095   1114   1136      9   180.00  15.16700   2 ;     S3-    C9-   C26-   H18
  1095   1094   1093   1115      9   180.00   1.67360   2 ;     C9-    S3-    C8-   C27
  1095   1096   1097   1098      9   180.00  15.16700   2 ;     C9-   C10-   C11-   C12
  1095   1096   1097   1125      9   180.00  15.16700   2 ;     C9-   C10-   C11-    H7
  1095   1114   1113   1098      9   180.00  15.16700   2 ;     C9-   C26-   C25-   C12
  1095   1114   1113   1135      9   180.00  15.16700   2 ;     C9-   C26-   C25-   H17
  1096   1095   1114   1113      9   180.00  15.16700   2 ;    C10-    C9-   C26-   C25
  1096   1095   1114   1136      9   180.00  15.16700   2 ;    C10-    C9-   C26-   H18
  1096   1097   1098   1099      9   180.00  15.16700   2 ;    C10-   C11-   C12-    S4
  1096   1097   1098   1113      9   180.00  15.16700   2 ;    C10-   C11-   C12-   C25
  1097   1096   1095   1114      9   180.00  15.16700   2 ;    C11-   C10-    C9-   C26
  1097   1098   1099   1100      9   180.00   1.67360   2 ;    C11-   C12-    S4-   C13
  1097   1098   1113   1114      9   180.00  15.16700   2 ;    C11-   C12-   C25-   C26
  1097   1098   1113   1135      9   180.00  15.16700   2 ;    C11-   C12-   C25-   H17
  1098   1097   1096   1124      9   180.00  15.16700   2 ;    C12-   C11-   C10-    H6
  1098   1099   1100   1101      9   180.00   1.67360   2 ;    C12-    S4-   C13-   C14
  1098   1099   1100   1112      9   180.00   1.67360   2 ;    C12-    S4-   C13-   C24
  1098   1113   1114   1136      9   180.00  15.16700   2 ;    C12-   C25-   C26-   H18
  1099   1098   1097   1125      9   180.00  15.16700   2 ;     S4-   C12-   C11-    H7
  1099   1098   1113   1114      9   180.00  15.16700   2 ;     S4-   C12-   C25-   C26
  1099   1098   1113   1135      9   180.00  15.16700   2 ;     S4-   C12-   C25-   H17
  1099   1100   1101   1102      9   180.00  15.16700   2 ;     S4-   C13-   C14-   C15
  1099   1100   1101   1126      9   180.00  15.16700   2 ;     S4-   C13-   C14-    H8
  1099   1100   1112   1111      9   180.00  15.16700   2 ;     S4-   C13-   C24-   C23
  1099   1100   1112   1134      9   180.00  15.16700   2 ;     S4-   C13-   C24-   H16
  1100   1099   1098   1113      9   180.00   1.67360   2 ;    C13-    S4-   C12-   C25
  1100   1101   1102   1103      9   180.00  15.16700   2 ;    C13-   C14-   C15-   C16
  1100   1101   1102   1127      9   180.00  15.16700   2 ;    C13-   C14-   C15-    H9
  1100   1112   1111   1103      9   180.00  15.16700   2 ;    C13-   C24-   C23-   C16
  1100   1112   1111   1133      9   180.00  15.16700   2 ;    C13-   C24-   C23-   H15
  1101   1100   1112   1111      9   180.00  15.16700   2 ;    C14-   C13-   C24-   C23
  1101   1100   1112   1134      9   180.00  15.16700   2 ;    C14-   C13-   C24-   H16
  1101   1102   1103   1104      9   180.00  15.16700   2 ;    C14-   C15-   C16-    S5
  1101   1102   1103   1111      9   180.00  15.16700   2 ;    C14-   C15-   C16-   C23
  1102   1101   1100   1112      9   180.00  15.16700   2 ;    C15-   C14-   C13-   C24
  1102   1103   1104   1105      9   180.00   1.67360   2 ;    C15-   C16-    S5-   C17
  1102   1103   1111   1112      9   180.00  15.16700   2 ;    C15-   C16-   C23-   C24
  1102   1103   1111   1133      9   180.00  15.16700   2 ;    C15-   C16-   C23-   H15
  1103   1102   1101   1126      9   180.00  15.16700   2 ;    C16-   C15-   C14-    H8
  1103   1104   1105   1106      9   180.00   1.67360   2 ;    C16-    S5-   C17-   C18
  1103   1104   1105   1110      9   180.00   1.67360   2 ;    C16-    S5-   C17-   C22
  1103   1111   1112   1134      9   180.00  15.16700   2 ;    C16-   C23-   C24-   H16
  1104   1103   1102   1127      9   180.00  15.16700   2 ;     S5-   C16-   C15-    H9
  1104   1103   1111   1112      9   180.00  15.16700   2 ;     S5-   C16-   C23-   C24
  1104   1103   1111   1133      9   180.00  15.16700   2 ;     S5-   C16-   C23-   H15
  1104   1105   1106   1107      9   180.00  15.16700   2 ;     S5-   C17-   C18-   C19
  1104   1105   1106   1128      9   180.00  15.16700   2 ;     S5-   C17-   C18-   H10
  1104   1105   1110   1109      9   180.00  15.16700   2 ;     S5-   C17-   C22-   C21
  1104   1105   1110   1132      9   180.00  15.16700   2 ;     S5-   C17-   C22-   H14
  1105   1104   1103   1111      9   180.00   1.67360   2 ;    C17-    S5-   C16-   C23
  1105   1106   1107   1108      9   180.00  15.16700   2 ;    C17-   C18-   C19-   C20
  1105   1106   1107   1129      9   180.00  15.16700   2 ;    C17-   C18-   C19-   H11
  1105   1110   1109   1108      9   180.00  15.16700   2 ;    C17-   C22-   C21-   C20
  1105   1110   1109   1131      9   180.00  15.16700   2 ;    C17-   C22-   C21-   H13
  1106   1105   1110   1109      9   180.00  15.16700   2 ;    C18-   C17-   C22-   C21
  1106   1105   1110   1132      9   180.00  15.16700   2 ;    C18-   C17-   C22-   H14
  1106   1107   1108   1109      9   180.00  15.16700   2 ;    C18-   C19-   C20-   C21
  1106   1107   1108   1130      9   180.00  15.16700   2 ;    C18-   C19-   C20-   H12
  1107   1106   1105   1110      9   180.00  15.16700   2 ;    C19-   C18-   C17-   C22
  1107   1108   1109   1110      9   180.00  15.16700   2 ;    C19-   C20-   C21-   C22
  1107   1108   1109   1131      9   180.00  15.16700   2 ;    C19-   C20-   C21-   H13
  1108   1107   1106   1128      9   180.00  15.16700   2 ;    C20-   C19-   C18-   H10
  1108   1109   1110   1132      9   180.00  15.16700   2 ;    C20-   C21-   C22-   H14
  1109   1108   1107   1129      9   180.00  15.16700   2 ;    C21-   C20-   C19-   H11
  1110   1105   1106   1128      9   180.00  15.16700   2 ;    C22-   C17-   C18-   H10
  1110   1109   1108   1130      9   180.00  15.16700   2 ;    C22-   C21-   C20-   H12
  1111   1103   1102   1127      9   180.00  15.16700   2 ;    C23-   C16-   C15-    H9
  1112   1100   1101   1126      9   180.00  15.16700   2 ;    C24-   C13-   C14-    H8
  1113   1098   1097   1125      9   180.00  15.16700   2 ;    C25-   C12-   C11-    H7
  1114   1095   1096   1124      9   180.00  15.16700   2 ;    C26-    C9-   C10-    H6
  1115   1093   1092   1123      9   180.00  15.16700   2 ;    C27-    C8-    C7-    H5
  1116   1090   1091   1122      9   180.00  15.16700   2 ;    C28-    C5-    C6-    H4
  1117   1088   1087   1121      9   180.00  15.16700   2 ;    C29-    C4-    C3-    H3
  1118   1085   1084   1119      9   180.00   0.48116   2 ;    C30-    C1-    S1-    H1
  1118   1085   1086   1120      9   180.00  15.16700   2 ;    C30-    C1-    C2-    H2
  1120   1086   1087   1121      9   180.00  15.16700   2 ;     H2-    C2-    C3-    H3
  1122   1091   1092   1123      9   180.00  15.16700   2 ;     H4-    C6-    C7-    H5
  1124   1096   1097   1125      9   180.00  15.16700   2 ;     H6-   C10-   C11-    H7
  1126   1101   1102   1127      9   180.00  15.16700   2 ;     H8-   C14-   C15-    H9
  1128   1106   1107   1129      9   180.00  15.16700   2 ;    H10-   C18-   C19-   H11
  1129   1107   1108   1130      9   180.00  15.16700   2 ;    H11-   C19-   C20-   H12
  1130   1108   1109   1131      9   180.00  15.16700   2 ;    H12-   C20-   C21-   H13
  1131   1109   1110   1132      9   180.00  15.16700   2 ;    H13-   C21-   C22-   H14
  1133   1111   1112   1134      9   180.00  15.16700   2 ;    H15-   C23-   C24-   H16
  1135   1113   1114   1136      9   180.00  15.16700   2 ;    H17-   C25-   C26-   H18
  1137   1115   1116   1138      9   180.00  15.16700   2 ;    H19-   C27-   C28-   H20
  1139   1117   1118   1140      9   180.00  15.16700   2 ;    H21-   C29-   C30-   H22

[ dihedrals ] ; impropers
; treated as propers in GROMACS to use correct AMBER analytical function
;    i      j      k      l   func   phase     kd      pn
     1      2     35      3      4   180.00   4.60240   2 ;     S1-    C1-   C30-    C2
     2      4      3     37      4   180.00   4.60240   2 ;     C1-    C3-    C2-    H2
     2     34     35     57      4   180.00   4.60240   2 ;     C1-   C29-   C30-   H22
     3      5      4     38      4   180.00   4.60240   2 ;     C2-    C4-    C3-    H3
     4     34      5      6      4   180.00   4.60240   2 ;     C3-   C29-    C4-    S2
     5     35     34     56      4   180.00   4.60240   2 ;     C4-   C30-   C29-   H21
     7      9      8     39      4   180.00   4.60240   2 ;     C5-    C7-    C6-    H4
     7     32     33     55      4   180.00   4.60240   2 ;     C5-   C27-   C28-   H20
     8     10      9     40      4   180.00   4.60240   2 ;     C6-    C8-    C7-    H5
     8     33      7      6      4   180.00   4.60240   2 ;     C6-   C28-    C5-    S2
     9     32     10     11      4   180.00   4.60240   2 ;     C7-   C27-    C8-    S3
    10     33     32     54      4   180.00   4.60240   2 ;     C8-   C28-   C27-   H19
    12     14     13     41      4   180.00   4.60240   2 ;     C9-   C11-   C10-    H6
    12     30     31     53      4   180.00   4.60240   2 ;     C9-   C25-   C26-   H18
    13     15     14     42      4   180.00   4.60240   2 ;    C10-   C12-   C11-    H7
    13     31     12     11      4   180.00   4.60240   2 ;    C10-   C26-    C9-    S3
    14     30     15     16      4   180.00   4.60240   2 ;    C11-   C25-   C12-    S4
    15     31     30     52      4   180.00   4.60240   2 ;    C12-   C26-   C25-   H17
    17     19     18     43      4   180.00   4.60240   2 ;    C13-   C15-   C14-    H8
    17     28     29     51      4   180.00   4.60240   2 ;    C13-   C23-   C24-   H16
    18     20     19     44      4   180.00   4.60240   2 ;    C14-   C16-   C15-    H9
    18     29     17     16      4   180.00   4.60240   2 ;    C14-   C24-   C13-    S4
    19     28     20     21      4   180.00   4.60240   2 ;    C15-   C23-   C16-    S5
    20     29     28     50      4   180.00   4.60240   2 ;    C16-   C24-   C23-   H15
    22     24     23     45      4   180.00   4.60240   2 ;    C17-   C19-   C18-   H10
    22     26     27     49      4   180.00   4.60240   2 ;    C17-   C21-   C22-   H14
    23     25     24     46      4   180.00   4.60240   2 ;    C18-   C20-   C19-   H11
    23     27     22     21      4   180.00   4.60240   2 ;    C18-   C22-   C17-    S5
    24     26     25     47      4   180.00   4.60240   2 ;    C19-   C21-   C20-   H12
    25     27     26     48      4   180.00   4.60240   2 ;    C20-   C22-   C21-   H13
    59     61     60     94      4   180.00   4.60240   2 ;     C1-    C3-    C2-    H2
    59     91     92    114      4   180.00   4.60240   2 ;     C1-   C29-   C30-   H22
    60     62     61     95      4   180.00   4.60240   2 ;     C2-    C4-    C3-    H3
    60     92     59     58      4   180.00   4.60240   2 ;     C2-   C30-    C1-    S1
    61     91     62     63      4   180.00   4.60240   2 ;     C3-   C29-    C4-    S2
    62     92     91    113      4   180.00   4.60240   2 ;     C4-   C30-   C29-   H21
    64     66     65     96      4   180.00   4.60240   2 ;     C5-    C7-    C6-    H4
    64     89     90    112      4   180.00   4.60240   2 ;     C5-   C27-   C28-   H20
    65     67     66     97      4   180.00   4.60240   2 ;     C6-    C8-    C7-    H5
    65     90     64     63      4   180.00   4.60240   2 ;     C6-   C28-    C5-    S2
    66     89     67     68      4   180.00   4.60240   2 ;     C7-   C27-    C8-    S3
    67     90     89    111      4   180.00   4.60240   2 ;     C8-   C28-   C27-   H19
    69     71     70     98      4   180.00   4.60240   2 ;     C9-   C11-   C10-    H6
    69     87     88    110      4   180.00   4.60240   2 ;     C9-   C25-   C26-   H18
    70     72     71     99      4   180.00   4.60240   2 ;    C10-   C12-   C11-    H7
    70     88     69     68      4   180.00   4.60240   2 ;    C10-   C26-    C9-    S3
    71     87     72     73      4   180.00   4.60240   2 ;    C11-   C25-   C12-    S4
    72     88     87    109      4   180.00   4.60240   2 ;    C12-   C26-   C25-   H17
    74     76     75    100      4   180.00   4.60240   2 ;    C13-   C15-   C14-    H8
    74     85     86    108      4   180.00   4.60240   2 ;    C13-   C23-   C24-   H16
    75     77     76    101      4   180.00   4.60240   2 ;    C14-   C16-   C15-    H9
    75     86     74     73      4   180.00   4.60240   2 ;    C14-   C24-   C13-    S4
    76     85     77     78      4   180.00   4.60240   2 ;    C15-   C23-   C16-    S5
    77     86     85    107      4   180.00   4.60240   2 ;    C16-   C24-   C23-   H15
    79     81     80    102      4   180.00   4.60240   2 ;    C17-   C19-   C18-   H10
    79     83     84    106      4   180.00   4.60240   2 ;    C17-   C21-   C22-   H14
    80     82     81    103      4   180.00   4.60240   2 ;    C18-   C20-   C19-   H11
    80     84     79     78      4   180.00   4.60240   2 ;    C18-   C22-   C17-    S5
    81     83     82    104      4   180.00   4.60240   2 ;    C19-   C21-   C20-   H12
    82     84     83    105      4   180.00   4.60240   2 ;    C20-   C22-   C21-   H13
   116    118    117    151      4   180.00   4.60240   2 ;     C1-    C3-    C2-    H2
   116    148    149    171      4   180.00   4.60240   2 ;     C1-   C29-   C30-   H22
   117    119    118    152      4   180.00   4.60240   2 ;     C2-    C4-    C3-    H3
   117    149    116    115      4   180.00   4.60240   2 ;     C2-   C30-    C1-    S1
   118    148    119    120      4   180.00   4.60240   2 ;     C3-   C29-    C4-    S2
   119    149    148    170      4   180.00   4.60240   2 ;     C4-   C30-   C29-   H21
   121    123    122    153      4   180.00   4.60240   2 ;     C5-    C7-    C6-    H4
   121    146    147    169      4   180.00   4.60240   2 ;     C5-   C27-   C28-   H20
   122    124    123    154      4   180.00   4.60240   2 ;     C6-    C8-    C7-    H5
   122    147    121    120      4   180.00   4.60240   2 ;     C6-   C28-    C5-    S2
   123    146    124    125      4   180.00   4.60240   2 ;     C7-   C27-    C8-    S3
   124    147    146    168      4   180.00   4.60240   2 ;     C8-   C28-   C27-   H19
   126    128    127    155      4   180.00   4.60240   2 ;     C9-   C11-   C10-    H6
   126    144    145    167      4   180.00   4.60240   2 ;     C9-   C25-   C26-   H18
   127    129    128    156      4   180.00   4.60240   2 ;    C10-   C12-   C11-    H7
   127    145    126    125      4   180.00   4.60240   2 ;    C10-   C26-    C9-    S3
   128    144    129    130      4   180.00   4.60240   2 ;    C11-   C25-   C12-    S4
   129    145    144    166      4   180.00   4.60240   2 ;    C12-   C26-   C25-   H17
   131    133    132    157      4   180.00   4.60240   2 ;    C13-   C15-   C14-    H8
   131    142    143    165      4   180.00   4.60240   2 ;    C13-   C23-   C24-   H16
   132    134    133    158      4   180.00   4.60240   2 ;    C14-   C16-   C15-    H9
   132    143    131    130      4   180.00   4.60240   2 ;    C14-   C24-   C13-    S4
   133    142    134    135      4   180.00   4.60240   2 ;    C15-   C23-   C16-    S5
   134    143    142    164      4   180.00   4.60240   2 ;    C16-   C24-   C23-   H15
   136    138    137    159      4   180.00   4.60240   2 ;    C17-   C19-   C18-   H10
   136    140    141    163      4   180.00   4.60240   2 ;    C17-   C21-   C22-   H14
   137    139    138    160      4   180.00   4.60240   2 ;    C18-   C20-   C19-   H11
   137    141    136    135      4   180.00   4.60240   2 ;    C18-   C22-   C17-    S5
   138    140    139    161      4   180.00   4.60240   2 ;    C19-   C21-   C20-   H12
   139    141    140    162      4   180.00   4.60240   2 ;    C20-   C22-   C21-   H13
   173    175    174    208      4   180.00   4.60240   2 ;     C1-    C3-    C2-    H2
   173    205    206    228      4   180.00   4.60240   2 ;     C1-   C29-   C30-   H22
   174    176    175    209      4   180.00   4.60240   2 ;     C2-    C4-    C3-    H3
   174    206    173    172      4   180.00   4.60240   2 ;     C2-   C30-    C1-    S1
   175    205    176    177      4   180.00   4.60240   2 ;     C3-   C29-    C4-    S2
   176    206    205    227      4   180.00   4.60240   2 ;     C4-   C30-   C29-   H21
   178    180    179    210      4   180.00   4.60240   2 ;     C5-    C7-    C6-    H4
   178    203    204    226      4   180.00   4.60240   2 ;     C5-   C27-   C28-   H20
   179    181    180    211      4   180.00   4.60240   2 ;     C6-    C8-    C7-    H5
   179    204    178    177      4   180.00   4.60240   2 ;     C6-   C28-    C5-    S2
   180    203    181    182      4   180.00   4.60240   2 ;     C7-   C27-    C8-    S3
   181    204    203    225      4   180.00   4.60240   2 ;     C8-   C28-   C27-   H19
   183    185    184    212      4   180.00   4.60240   2 ;     C9-   C11-   C10-    H6
   183    201    202    224      4   180.00   4.60240   2 ;     C9-   C25-   C26-   H18
   184    186    185    213      4   180.00   4.60240   2 ;    C10-   C12-   C11-    H7
   184    202    183    182      4   180.00   4.60240   2 ;    C10-   C26-    C9-    S3
   185    201    186    187      4   180.00   4.60240   2 ;    C11-   C25-   C12-    S4
   186    202    201    223      4   180.00   4.60240   2 ;    C12-   C26-   C25-   H17
   188    190    189    214      4   180.00   4.60240   2 ;    C13-   C15-   C14-    H8
   188    199    200    222      4   180.00   4.60240   2 ;    C13-   C23-   C24-   H16
   189    191    190    215      4   180.00   4.60240   2 ;    C14-   C16-   C15-    H9
   189    200    188    187      4   180.00   4.60240   2 ;    C14-   C24-   C13-    S4
   190    199    191    192      4   180.00   4.60240   2 ;    C15-   C23-   C16-    S5
   191    200    199    221      4   180.00   4.60240   2 ;    C16-   C24-   C23-   H15
   193    195    194    216      4   180.00   4.60240   2 ;    C17-   C19-   C18-   H10
   193    197    198    220      4   180.00   4.60240   2 ;    C17-   C21-   C22-   H14
   194    196    195    217      4   180.00   4.60240   2 ;    C18-   C20-   C19-   H11
   194    198    193    192      4   180.00   4.60240   2 ;    C18-   C22-   C17-    S5
   195    197    196    218      4   180.00   4.60240   2 ;    C19-   C21-   C20-   H12
   196    198    197    219      4   180.00   4.60240   2 ;    C20-   C22-   C21-   H13
   230    232    231    265      4   180.00   4.60240   2 ;     C1-    C3-    C2-    H2
   230    262    263    285      4   180.00   4.60240   2 ;     C1-   C29-   C30-   H22
   231    233    232    266      4   180.00   4.60240   2 ;     C2-    C4-    C3-    H3
   231    263    230    229      4   180.00   4.60240   2 ;     C2-   C30-    C1-    S1
   232    262    233    234      4   180.00   4.60240   2 ;     C3-   C29-    C4-    S2
   233    263    262    284      4   180.00   4.60240   2 ;     C4-   C30-   C29-   H21
   235    237    236    267      4   180.00   4.60240   2 ;     C5-    C7-    C6-    H4
   235    260    261    283      4   180.00   4.60240   2 ;     C5-   C27-   C28-   H20
   236    238    237    268      4   180.00   4.60240   2 ;     C6-    C8-    C7-    H5
   236    261    235    234      4   180.00   4.60240   2 ;     C6-   C28-    C5-    S2
   237    260    238    239      4   180.00   4.60240   2 ;     C7-   C27-    C8-    S3
   238    261    260    282      4   180.00   4.60240   2 ;     C8-   C28-   C27-   H19
   240    242    241    269      4   180.00   4.60240   2 ;     C9-   C11-   C10-    H6
   240    258    259    281      4   180.00   4.60240   2 ;     C9-   C25-   C26-   H18
   241    243    242    270      4   180.00   4.60240   2 ;    C10-   C12-   C11-    H7
   241    259    240    239      4   180.00   4.60240   2 ;    C10-   C26-    C9-    S3
   242    258    243    244      4   180.00   4.60240   2 ;    C11-   C25-   C12-    S4
   243    259    258    280      4   180.00   4.60240   2 ;    C12-   C26-   C25-   H17
   245    247    246    271      4   180.00   4.60240   2 ;    C13-   C15-   C14-    H8
   245    256    257    279      4   180.00   4.60240   2 ;    C13-   C23-   C24-   H16
   246    248    247    272      4   180.00   4.60240   2 ;    C14-   C16-   C15-    H9
   246    257    245    244      4   180.00   4.60240   2 ;    C14-   C24-   C13-    S4
   247    256    248    249      4   180.00   4.60240   2 ;    C15-   C23-   C16-    S5
   248    257    256    278      4   180.00   4.60240   2 ;    C16-   C24-   C23-   H15
   250    252    251    273      4   180.00   4.60240   2 ;    C17-   C19-   C18-   H10
   250    254    255    277      4   180.00   4.60240   2 ;    C17-   C21-   C22-   H14
   251    253    252    274      4   180.00   4.60240   2 ;    C18-   C20-   C19-   H11
   251    255    250    249      4   180.00   4.60240   2 ;    C18-   C22-   C17-    S5
   252    254    253    275      4   180.00   4.60240   2 ;    C19-   C21-   C20-   H12
   253    255    254    276      4   180.00   4.60240   2 ;    C20-   C22-   C21-   H13
   287    289    288    322      4   180.00   4.60240   2 ;     C1-    C3-    C2-    H2
   287    319    320    342      4   180.00   4.60240   2 ;     C1-   C29-   C30-   H22
   288    290    289    323      4   180.00   4.60240   2 ;     C2-    C4-    C3-    H3
   288    320    287    286      4   180.00   4.60240   2 ;     C2-   C30-    C1-    S1
   289    319    290    291      4   180.00   4.60240   2 ;     C3-   C29-    C4-    S2
   290    320    319    341      4   180.00   4.60240   2 ;     C4-   C30-   C29-   H21
   292    294    293    324      4   180.00   4.60240   2 ;     C5-    C7-    C6-    H4
   292    317    318    340      4   180.00   4.60240   2 ;     C5-   C27-   C28-   H20
   293    295    294    325      4   180.00   4.60240   2 ;     C6-    C8-    C7-    H5
   293    318    292    291      4   180.00   4.60240   2 ;     C6-   C28-    C5-    S2
   294    317    295    296      4   180.00   4.60240   2 ;     C7-   C27-    C8-    S3
   295    318    317    339      4   180.00   4.60240   2 ;     C8-   C28-   C27-   H19
   297    299    298    326      4   180.00   4.60240   2 ;     C9-   C11-   C10-    H6
   297    315    316    338      4   180.00   4.60240   2 ;     C9-   C25-   C26-   H18
   298    300    299    327      4   180.00   4.60240   2 ;    C10-   C12-   C11-    H7
   298    316    297    296      4   180.00   4.60240   2 ;    C10-   C26-    C9-    S3
   299    315    300    301      4   180.00   4.60240   2 ;    C11-   C25-   C12-    S4
   300    316    315    337      4   180.00   4.60240   2 ;    C12-   C26-   C25-   H17
   302    304    303    328      4   180.00   4.60240   2 ;    C13-   C15-   C14-    H8
   302    313    314    336      4   180.00   4.60240   2 ;    C13-   C23-   C24-   H16
   303    305    304    329      4   180.00   4.60240   2 ;    C14-   C16-   C15-    H9
   303    314    302    301      4   180.00   4.60240   2 ;    C14-   C24-   C13-    S4
   304    313    305    306      4   180.00   4.60240   2 ;    C15-   C23-   C16-    S5
   305    314    313    335      4   180.00   4.60240   2 ;    C16-   C24-   C23-   H15
   307    309    308    330      4   180.00   4.60240   2 ;    C17-   C19-   C18-   H10
   307    311    312    334      4   180.00   4.60240   2 ;    C17-   C21-   C22-   H14
   308    310    309    331      4   180.00   4.60240   2 ;    C18-   C20-   C19-   H11
   308    312    307    306      4   180.00   4.60240   2 ;    C18-   C22-   C17-    S5
   309    311    310    332      4   180.00   4.60240   2 ;    C19-   C21-   C20-   H12
   310    312    311    333      4   180.00   4.60240   2 ;    C20-   C22-   C21-   H13
   344    346    345    379      4   180.00   4.60240   2 ;     C1-    C3-    C2-    H2
   344    376    377    399      4   180.00   4.60240   2 ;     C1-   C29-   C30-   H22
   345    347    346    380      4   180.00   4.60240   2 ;     C2-    C4-    C3-    H3
   345    377    344    343      4   180.00   4.60240   2 ;     C2-   C30-    C1-    S1
   346    376    347    348      4   180.00   4.60240   2 ;     C3-   C29-    C4-    S2
   347    377    376    398      4   180.00   4.60240   2 ;     C4-   C30-   C29-   H21
   349    351    350    381      4   180.00   4.60240   2 ;     C5-    C7-    C6-    H4
   349    374    375    397      4   180.00   4.60240   2 ;     C5-   C27-   C28-   H20
   350    352    351    382      4   180.00   4.60240   2 ;     C6-    C8-    C7-    H5
   350    375    349    348      4   180.00   4.60240   2 ;     C6-   C28-    C5-    S2
   351    374    352    353      4   180.00   4.60240   2 ;     C7-   C27-    C8-    S3
   352    375    374    396      4   180.00   4.60240   2 ;     C8-   C28-   C27-   H19
   354    356    355    383      4   180.00   4.60240   2 ;     C9-   C11-   C10-    H6
   354    372    373    395      4   180.00   4.60240   2 ;     C9-   C25-   C26-   H18
   355    357    356    384      4   180.00   4.60240   2 ;    C10-   C12-   C11-    H7
   355    373    354    353      4   180.00   4.60240   2 ;    C10-   C26-    C9-    S3
   356    372    357    358      4   180.00   4.60240   2 ;    C11-   C25-   C12-    S4
   357    373    372    394      4   180.00   4.60240   2 ;    C12-   C26-   C25-   H17
   359    361    360    385      4   180.00   4.60240   2 ;    C13-   C15-   C14-    H8
   359    370    371    393      4   180.00   4.60240   2 ;    C13-   C23-   C24-   H16
   360    362    361    386      4   180.00   4.60240   2 ;    C14-   C16-   C15-    H9
   360    371    359    358      4   180.00   4.60240   2 ;    C14-   C24-   C13-    S4
   361    370    362    363      4   180.00   4.60240   2 ;    C15-   C23-   C16-    S5
   362    371    370    392      4   180.00   4.60240   2 ;    C16-   C24-   C23-   H15
   364    366    365    387      4   180.00   4.60240   2 ;    C17-   C19-   C18-   H10
   364    368    369    391      4   180.00   4.60240   2 ;    C17-   C21-   C22-   H14
   365    367    366    388      4   180.00   4.60240   2 ;    C18-   C20-   C19-   H11
   365    369    364    363      4   180.00   4.60240   2 ;    C18-   C22-   C17-    S5
   366    368    367    389      4   180.00   4.60240   2 ;    C19-   C21-   C20-   H12
   367    369    368    390      4   180.00   4.60240   2 ;    C20-   C22-   C21-   H13
   401    403    402    436      4   180.00   4.60240   2 ;     C1-    C3-    C2-    H2
   401    433    434    456      4   180.00   4.60240   2 ;     C1-   C29-   C30-   H22
   402    404    403    437      4   180.00   4.60240   2 ;     C2-    C4-    C3-    H3
   402    434    401    400      4   180.00   4.60240   2 ;     C2-   C30-    C1-    S1
   403    433    404    405      4   180.00   4.60240   2 ;     C3-   C29-    C4-    S2
   404    434    433    455      4   180.00   4.60240   2 ;     C4-   C30-   C29-   H21
   406    408    407    438      4   180.00   4.60240   2 ;     C5-    C7-    C6-    H4
   406    431    432    454      4   180.00   4.60240   2 ;     C5-   C27-   C28-   H20
   407    409    408    439      4   180.00   4.60240   2 ;     C6-    C8-    C7-    H5
   407    432    406    405      4   180.00   4.60240   2 ;     C6-   C28-    C5-    S2
   408    431    409    410      4   180.00   4.60240   2 ;     C7-   C27-    C8-    S3
   409    432    431    453      4   180.00   4.60240   2 ;     C8-   C28-   C27-   H19
   411    413    412    440      4   180.00   4.60240   2 ;     C9-   C11-   C10-    H6
   411    429    430    452      4   180.00   4.60240   2 ;     C9-   C25-   C26-   H18
   412    414    413    441      4   180.00   4.60240   2 ;    C10-   C12-   C11-    H7
   412    430    411    410      4   180.00   4.60240   2 ;    C10-   C26-    C9-    S3
   413    429    414    415      4   180.00   4.60240   2 ;    C11-   C25-   C12-    S4
   414    430    429    451      4   180.00   4.60240   2 ;    C12-   C26-   C25-   H17
   416    418    417    442      4   180.00   4.60240   2 ;    C13-   C15-   C14-    H8
   416    427    428    450      4   180.00   4.60240   2 ;    C13-   C23-   C24-   H16
   417    419    418    443      4   180.00   4.60240   2 ;    C14-   C16-   C15-    H9
   417    428    416    415      4   180.00   4.60240   2 ;    C14-   C24-   C13-    S4
   418    427    419    420      4   180.00   4.60240   2 ;    C15-   C23-   C16-    S5
   419    428    427    449      4   180.00   4.60240   2 ;    C16-   C24-   C23-   H15
   421    423    422    444      4   180.00   4.60240   2 ;    C17-   C19-   C18-   H10
   421    425    426    448      4   180.00   4.60240   2 ;    C17-   C21-   C22-   H14
   422    424    423    445      4   180.00   4.60240   2 ;    C18-   C20-   C19-   H11
   422    426    421    420      4   180.00   4.60240   2 ;    C18-   C22-   C17-    S5
   423    425    424    446      4   180.00   4.60240   2 ;    C19-   C21-   C20-   H12
   424    426    425    447      4   180.00   4.60240   2 ;    C20-   C22-   C21-   H13
   458    460    459    493      4   180.00   4.60240   2 ;     C1-    C3-    C2-    H2
   458    490    491    513      4   180.00   4.60240   2 ;     C1-   C29-   C30-   H22
   459    461    460    494      4   180.00   4.60240   2 ;     C2-    C4-    C3-    H3
   459    491    458    457      4   180.00   4.60240   2 ;     C2-   C30-    C1-    S1
   460    490    461    462      4   180.00   4.60240   2 ;     C3-   C29-    C4-    S2
   461    491    490    512      4   180.00   4.60240   2 ;     C4-   C30-   C29-   H21
   463    465    464    495      4   180.00   4.60240   2 ;     C5-    C7-    C6-    H4
   463    488    489    511      4   180.00   4.60240   2 ;     C5-   C27-   C28-   H20
   464    466    465    496      4   180.00   4.60240   2 ;     C6-    C8-    C7-    H5
   464    489    463    462      4   180.00   4.60240   2 ;     C6-   C28-    C5-    S2
   465    488    466    467      4   180.00   4.60240   2 ;     C7-   C27-    C8-    S3
   466    489    488    510      4   180.00   4.60240   2 ;     C8-   C28-   C27-   H19
   468    470    469    497      4   180.00   4.60240   2 ;     C9-   C11-   C10-    H6
   468    486    487    509      4   180.00   4.60240   2 ;     C9-   C25-   C26-   H18
   469    471    470    498      4   180.00   4.60240   2 ;    C10-   C12-   C11-    H7
   469    487    468    467      4   180.00   4.60240   2 ;    C10-   C26-    C9-    S3
   470    486    471    472      4   180.00   4.60240   2 ;    C11-   C25-   C12-    S4
   471    487    486    508      4   180.00   4.60240   2 ;    C12-   C26-   C25-   H17
   473    475    474    499      4   180.00   4.60240   2 ;    C13-   C15-   C14-    H8
   473    484    485    507      4   180.00   4.60240   2 ;    C13-   C23-   C24-   H16
   474    476    475    500      4   180.00   4.60240   2 ;    C14-   C16-   C15-    H9
   474    485    473    472      4   180.00   4.60240   2 ;    C14-   C24-   C13-    S4
   475    484    476    477      4   180.00   4.60240   2 ;    C15-   C23-   C16-    S5
   476    485    484    506      4   180.00   4.60240   2 ;    C16-   C24-   C23-   H15
   478    480    479    501      4   180.00   4.60240   2 ;    C17-   C19-   C18-   H10
   478    482    483    505      4   180.00   4.60240   2 ;    C17-   C21-   C22-   H14
   479    481    480    502      4   180.00   4.60240   2 ;    C18-   C20-   C19-   H11
   479    483    478    477      4   180.00   4.60240   2 ;    C18-   C22-   C17-    S5
   480    482    481    503      4   180.00   4.60240   2 ;    C19-   C21-   C20-   H12
   481    483    482    504      4   180.00   4.60240   2 ;    C20-   C22-   C21-   H13
   515    517    516    550      4   180.00   4.60240   2 ;     C1-    C3-    C2-    H2
   515    547    548    570      4   180.00   4.60240   2 ;     C1-   C29-   C30-   H22
   516    518    517    551      4   180.00   4.60240   2 ;     C2-    C4-    C3-    H3
   516    548    515    514      4   180.00   4.60240   2 ;     C2-   C30-    C1-    S1
   517    547    518    519      4   180.00   4.60240   2 ;     C3-   C29-    C4-    S2
   518    548    547    569      4   180.00   4.60240   2 ;     C4-   C30-   C29-   H21
   520    522    521    552      4   180.00   4.60240   2 ;     C5-    C7-    C6-    H4
   520    545    546    568      4   180.00   4.60240   2 ;     C5-   C27-   C28-   H20
   521    523    522    553      4   180.00   4.60240   2 ;     C6-    C8-    C7-    H5
   521    546    520    519      4   180.00   4.60240   2 ;     C6-   C28-    C5-    S2
   522    545    523    524      4   180.00   4.60240   2 ;     C7-   C27-    C8-    S3
   523    546    545    567      4   180.00   4.60240   2 ;     C8-   C28-   C27-   H19
   525    527    526    554      4   180.00   4.60240   2 ;     C9-   C11-   C10-    H6
   525    543    544    566      4   180.00   4.60240   2 ;     C9-   C25-   C26-   H18
   526    528    527    555      4   180.00   4.60240   2 ;    C10-   C12-   C11-    H7
   526    544    525    524      4   180.00   4.60240   2 ;    C10-   C26-    C9-    S3
   527    543    528    529      4   180.00   4.60240   2 ;    C11-   C25-   C12-    S4
   528    544    543    565      4   180.00   4.60240   2 ;    C12-   C26-   C25-   H17
   530    532    531    556      4   180.00   4.60240   2 ;    C13-   C15-   C14-    H8
   530    541    542    564      4   180.00   4.60240   2 ;    C13-   C23-   C24-   H16
   531    533    532    557      4   180.00   4.60240   2 ;    C14-   C16-   C15-    H9
   531    542    530    529      4   180.00   4.60240   2 ;    C14-   C24-   C13-    S4
   532    541    533    534      4   180.00   4.60240   2 ;    C15-   C23-   C16-    S5
   533    542    541    563      4   180.00   4.60240   2 ;    C16-   C24-   C23-   H15
   535    537    536    558      4   180.00   4.60240   2 ;    C17-   C19-   C18-   H10
   535    539    540    562      4   180.00   4.60240   2 ;    C17-   C21-   C22-   H14
   536    538    537    559      4   180.00   4.60240   2 ;    C18-   C20-   C19-   H11
   536    540    535    534      4   180.00   4.60240   2 ;    C18-   C22-   C17-    S5
   537    539    538    560      4   180.00   4.60240   2 ;    C19-   C21-   C20-   H12
   538    540    539    561      4   180.00   4.60240   2 ;    C20-   C22-   C21-   H13
   572    574    573    607      4   180.00   4.60240   2 ;     C1-    C3-    C2-    H2
   572    604    605    627      4   180.00   4.60240   2 ;     C1-   C29-   C30-   H22
   573    575    574    608      4   180.00   4.60240   2 ;     C2-    C4-    C3-    H3
   573    605    572    571      4   180.00   4.60240   2 ;     C2-   C30-    C1-    S1
   574    604    575    576      4   180.00   4.60240   2 ;     C3-   C29-    C4-    S2
   575    605    604    626      4   180.00   4.60240   2 ;     C4-   C30-   C29-   H21
   577    579    578    609      4   180.00   4.60240   2 ;     C5-    C7-    C6-    H4
   577    602    603    625      4   180.00   4.60240   2 ;     C5-   C27-   C28-   H20
   578    580    579    610      4   180.00   4.60240   2 ;     C6-    C8-    C7-    H5
   578    603    577    576      4   180.00   4.60240   2 ;     C6-   C28-    C5-    S2
   579    602    580    581      4   180.00   4.60240   2 ;     C7-   C27-    C8-    S3
   580    603    602    624      4   180.00   4.60240   2 ;     C8-   C28-   C27-   H19
   582    584    583    611      4   180.00   4.60240   2 ;     C9-   C11-   C10-    H6
   582    600    601    623      4   180.00   4.60240   2 ;     C9-   C25-   C26-   H18
   583    585    584    612      4   180.00   4.60240   2 ;    C10-   C12-   C11-    H7
   583    601    582    581      4   180.00   4.60240   2 ;    C10-   C26-    C9-    S3
   584    600    585    586      4   180.00   4.60240   2 ;    C11-   C25-   C12-    S4
   585    601    600    622      4   180.00   4.60240   2 ;    C12-   C26-   C25-   H17
   587    589    588    613      4   180.00   4.60240   2 ;    C13-   C15-   C14-    H8
   587    598    599    621      4   180.00   4.60240   2 ;    C13-   C23-   C24-   H16
   588    590    589    614      4   180.00   4.60240   2 ;    C14-   C16-   C15-    H9
   588    599    587    586      4   180.00   4.60240   2 ;    C14-   C24-   C13-    S4
   589    598    590    591      4   180.00   4.60240   2 ;    C15-   C23-   C16-    S5
   590    599    598    620      4   180.00   4.60240   2 ;    C16-   C24-   C23-   H15
   592    594    593    615      4   180.00   4.60240   2 ;    C17-   C19-   C18-   H10
   592    596    597    619      4   180.00   4.60240   2 ;    C17-   C21-   C22-   H14
   593    595    594    616      4   180.00   4.60240   2 ;    C18-   C20-   C19-   H11
   593    597    592    591      4   180.00   4.60240   2 ;    C18-   C22-   C17-    S5
   594    596    595    617      4   180.00   4.60240   2 ;    C19-   C21-   C20-   H12
   595    597    596    618      4   180.00   4.60240   2 ;    C20-   C22-   C21-   H13
   629    631    630    664      4   180.00   4.60240   2 ;     C1-    C3-    C2-    H2
   629    661    662    684      4   180.00   4.60240   2 ;     C1-   C29-   C30-   H22
   630    632    631    665      4   180.00   4.60240   2 ;     C2-    C4-    C3-    H3
   630    662    629    628      4   180.00   4.60240   2 ;     C2-   C30-    C1-    S1
   631    661    632    633      4   180.00   4.60240   2 ;     C3-   C29-    C4-    S2
   632    662    661    683      4   180.00   4.60240   2 ;     C4-   C30-   C29-   H21
   634    636    635    666      4   180.00   4.60240   2 ;     C5-    C7-    C6-    H4
   634    659    660    682      4   180.00   4.60240   2 ;     C5-   C27-   C28-   H20
   635    637    636    667      4   180.00   4.60240   2 ;     C6-    C8-    C7-    H5
   635    660    634    633      4   180.00   4.60240   2 ;     C6-   C28-    C5-    S2
   636    659    637    638      4   180.00   4.60240   2 ;     C7-   C27-    C8-    S3
   637    660    659    681      4   180.00   4.60240   2 ;     C8-   C28-   C27-   H19
   639    641    640    668      4   180.00   4.60240   2 ;     C9-   C11-   C10-    H6
   639    657    658    680      4   180.00   4.60240   2 ;     C9-   C25-   C26-   H18
   640    642    641    669      4   180.00   4.60240   2 ;    C10-   C12-   C11-    H7
   640    658    639    638      4   180.00   4.60240   2 ;    C10-   C26-    C9-    S3
   641    657    642    643      4   180.00   4.60240   2 ;    C11-   C25-   C12-    S4
   642    658    657    679      4   180.00   4.60240   2 ;    C12-   C26-   C25-   H17
   644    646    645    670      4   180.00   4.60240   2 ;    C13-   C15-   C14-    H8
   644    655    656    678      4   180.00   4.60240   2 ;    C13-   C23-   C24-   H16
   645    647    646    671      4   180.00   4.60240   2 ;    C14-   C16-   C15-    H9
   645    656    644    643      4   180.00   4.60240   2 ;    C14-   C24-   C13-    S4
   646    655    647    648      4   180.00   4.60240   2 ;    C15-   C23-   C16-    S5
   647    656    655    677      4   180.00   4.60240   2 ;    C16-   C24-   C23-   H15
   649    651    650    672      4   180.00   4.60240   2 ;    C17-   C19-   C18-   H10
   649    653    654    676      4   180.00   4.60240   2 ;    C17-   C21-   C22-   H14
   650    652    651    673      4   180.00   4.60240   2 ;    C18-   C20-   C19-   H11
   650    654    649    648      4   180.00   4.60240   2 ;    C18-   C22-   C17-    S5
   651    653    652    674      4   180.00   4.60240   2 ;    C19-   C21-   C20-   H12
   652    654    653    675      4   180.00   4.60240   2 ;    C20-   C22-   C21-   H13
   686    688    687    721      4   180.00   4.60240   2 ;     C1-    C3-    C2-    H2
   686    718    719    741      4   180.00   4.60240   2 ;     C1-   C29-   C30-   H22
   687    689    688    722      4   180.00   4.60240   2 ;     C2-    C4-    C3-    H3
   687    719    686    685      4   180.00   4.60240   2 ;     C2-   C30-    C1-    S1
   688    718    689    690      4   180.00   4.60240   2 ;     C3-   C29-    C4-    S2
   689    719    718    740      4   180.00   4.60240   2 ;     C4-   C30-   C29-   H21
   691    693    692    723      4   180.00   4.60240   2 ;     C5-    C7-    C6-    H4
   691    716    717    739      4   180.00   4.60240   2 ;     C5-   C27-   C28-   H20
   692    694    693    724      4   180.00   4.60240   2 ;     C6-    C8-    C7-    H5
   692    717    691    690      4   180.00   4.60240   2 ;     C6-   C28-    C5-    S2
   693    716    694    695      4   180.00   4.60240   2 ;     C7-   C27-    C8-    S3
   694    717    716    738      4   180.00   4.60240   2 ;     C8-   C28-   C27-   H19
   696    698    697    725      4   180.00   4.60240   2 ;     C9-   C11-   C10-    H6
   696    714    715    737      4   180.00   4.60240   2 ;     C9-   C25-   C26-   H18
   697    699    698    726      4   180.00   4.60240   2 ;    C10-   C12-   C11-    H7
   697    715    696    695      4   180.00   4.60240   2 ;    C10-   C26-    C9-    S3
   698    714    699    700      4   180.00   4.60240   2 ;    C11-   C25-   C12-    S4
   699    715    714    736      4   180.00   4.60240   2 ;    C12-   C26-   C25-   H17
   701    703    702    727      4   180.00   4.60240   2 ;    C13-   C15-   C14-    H8
   701    712    713    735      4   180.00   4.60240   2 ;    C13-   C23-   C24-   H16
   702    704    703    728      4   180.00   4.60240   2 ;    C14-   C16-   C15-    H9
   702    713    701    700      4   180.00   4.60240   2 ;    C14-   C24-   C13-    S4
   703    712    704    705      4   180.00   4.60240   2 ;    C15-   C23-   C16-    S5
   704    713    712    734      4   180.00   4.60240   2 ;    C16-   C24-   C23-   H15
   706    708    707    729      4   180.00   4.60240   2 ;    C17-   C19-   C18-   H10
   706    710    711    733      4   180.00   4.60240   2 ;    C17-   C21-   C22-   H14
   707    709    708    730      4   180.00   4.60240   2 ;    C18-   C20-   C19-   H11
   707    711    706    705      4   180.00   4.60240   2 ;    C18-   C22-   C17-    S5
   708    710    709    731      4   180.00   4.60240   2 ;    C19-   C21-   C20-   H12
   709    711    710    732      4   180.00   4.60240   2 ;    C20-   C22-   C21-   H13
   743    745    744    778      4   180.00   4.60240   2 ;     C1-    C3-    C2-    H2
   743    775    776    798      4   180.00   4.60240   2 ;     C1-   C29-   C30-   H22
   744    746    745    779      4   180.00   4.60240   2 ;     C2-    C4-    C3-    H3
   744    776    743    742      4   180.00   4.60240   2 ;     C2-   C30-    C1-    S1
   745    775    746    747      4   180.00   4.60240   2 ;     C3-   C29-    C4-    S2
   746    776    775    797      4   180.00   4.60240   2 ;     C4-   C30-   C29-   H21
   748    750    749    780      4   180.00   4.60240   2 ;     C5-    C7-    C6-    H4
   748    773    774    796      4   180.00   4.60240   2 ;     C5-   C27-   C28-   H20
   749    751    750    781      4   180.00   4.60240   2 ;     C6-    C8-    C7-    H5
   749    774    748    747      4   180.00   4.60240   2 ;     C6-   C28-    C5-    S2
   750    773    751    752      4   180.00   4.60240   2 ;     C7-   C27-    C8-    S3
   751    774    773    795      4   180.00   4.60240   2 ;     C8-   C28-   C27-   H19
   753    755    754    782      4   180.00   4.60240   2 ;     C9-   C11-   C10-    H6
   753    771    772    794      4   180.00   4.60240   2 ;     C9-   C25-   C26-   H18
   754    756    755    783      4   180.00   4.60240   2 ;    C10-   C12-   C11-    H7
   754    772    753    752      4   180.00   4.60240   2 ;    C10-   C26-    C9-    S3
   755    771    756    757      4   180.00   4.60240   2 ;    C11-   C25-   C12-    S4
   756    772    771    793      4   180.00   4.60240   2 ;    C12-   C26-   C25-   H17
   758    760    759    784      4   180.00   4.60240   2 ;    C13-   C15-   C14-    H8
   758    769    770    792      4   180.00   4.60240   2 ;    C13-   C23-   C24-   H16
   759    761    760    785      4   180.00   4.60240   2 ;    C14-   C16-   C15-    H9
   759    770    758    757      4   180.00   4.60240   2 ;    C14-   C24-   C13-    S4
   760    769    761    762      4   180.00   4.60240   2 ;    C15-   C23-   C16-    S5
   761    770    769    791      4   180.00   4.60240   2 ;    C16-   C24-   C23-   H15
   763    765    764    786      4   180.00   4.60240   2 ;    C17-   C19-   C18-   H10
   763    767    768    790      4   180.00   4.60240   2 ;    C17-   C21-   C22-   H14
   764    766    765    787      4   180.00   4.60240   2 ;    C18-   C20-   C19-   H11
   764    768    763    762      4   180.00   4.60240   2 ;    C18-   C22-   C17-    S5
   765    767    766    788      4   180.00   4.60240   2 ;    C19-   C21-   C20-   H12
   766    768    767    789      4   180.00   4.60240   2 ;    C20-   C22-   C21-   H13
   800    802    801    835      4   180.00   4.60240   2 ;     C1-    C3-    C2-    H2
   800    832    833    855      4   180.00   4.60240   2 ;     C1-   C29-   C30-   H22
   801    803    802    836      4   180.00   4.60240   2 ;     C2-    C4-    C3-    H3
   801    833    800    799      4   180.00   4.60240   2 ;     C2-   C30-    C1-    S1
   802    832    803    804      4   180.00   4.60240   2 ;     C3-   C29-    C4-    S2
   803    833    832    854      4   180.00   4.60240   2 ;     C4-   C30-   C29-   H21
   805    807    806    837      4   180.00   4.60240   2 ;     C5-    C7-    C6-    H4
   805    830    831    853      4   180.00   4.60240   2 ;     C5-   C27-   C28-   H20
   806    808    807    838      4   180.00   4.60240   2 ;     C6-    C8-    C7-    H5
   806    831    805    804      4   180.00   4.60240   2 ;     C6-   C28-    C5-    S2
   807    830    808    809      4   180.00   4.60240   2 ;     C7-   C27-    C8-    S3
   808    831    830    852      4   180.00   4.60240   2 ;     C8-   C28-   C27-   H19
   810    812    811    839      4   180.00   4.60240   2 ;     C9-   C11-   C10-    H6
   810    828    829    851      4   180.00   4.60240   2 ;     C9-   C25-   C26-   H18
   811    813    812    840      4   180.00   4.60240   2 ;    C10-   C12-   C11-    H7
   811    829    810    809      4   180.00   4.60240   2 ;    C10-   C26-    C9-    S3
   812    828    813    814      4   180.00   4.60240   2 ;    C11-   C25-   C12-    S4
   813    829    828    850      4   180.00   4.60240   2 ;    C12-   C26-   C25-   H17
   815    817    816    841      4   180.00   4.60240   2 ;    C13-   C15-   C14-    H8
   815    826    827    849      4   180.00   4.60240   2 ;    C13-   C23-   C24-   H16
   816    818    817    842      4   180.00   4.60240   2 ;    C14-   C16-   C15-    H9
   816    827    815    814      4   180.00   4.60240   2 ;    C14-   C24-   C13-    S4
   817    826    818    819      4   180.00   4.60240   2 ;    C15-   C23-   C16-    S5
   818    827    826    848      4   180.00   4.60240   2 ;    C16-   C24-   C23-   H15
   820    822    821    843      4   180.00   4.60240   2 ;    C17-   C19-   C18-   H10
   820    824    825    847      4   180.00   4.60240   2 ;    C17-   C21-   C22-   H14
   821    823    822    844      4   180.00   4.60240   2 ;    C18-   C20-   C19-   H11
   821    825    820    819      4   180.00   4.60240   2 ;    C18-   C22-   C17-    S5
   822    824    823    845      4   180.00   4.60240   2 ;    C19-   C21-   C20-   H12
   823    825    824    846      4   180.00   4.60240   2 ;    C20-   C22-   C21-   H13
   857    859    858    892      4   180.00   4.60240   2 ;     C1-    C3-    C2-    H2
   857    889    890    912      4   180.00   4.60240   2 ;     C1-   C29-   C30-   H22
   858    860    859    893      4   180.00   4.60240   2 ;     C2-    C4-    C3-    H3
   858    890    857    856      4   180.00   4.60240   2 ;     C2-   C30-    C1-    S1
   859    889    860    861      4   180.00   4.60240   2 ;     C3-   C29-    C4-    S2
   860    890    889    911      4   180.00   4.60240   2 ;     C4-   C30-   C29-   H21
   862    864    863    894      4   180.00   4.60240   2 ;     C5-    C7-    C6-    H4
   862    887    888    910      4   180.00   4.60240   2 ;     C5-   C27-   C28-   H20
   863    865    864    895      4   180.00   4.60240   2 ;     C6-    C8-    C7-    H5
   863    888    862    861      4   180.00   4.60240   2 ;     C6-   C28-    C5-    S2
   864    887    865    866      4   180.00   4.60240   2 ;     C7-   C27-    C8-    S3
   865    888    887    909      4   180.00   4.60240   2 ;     C8-   C28-   C27-   H19
   867    869    868    896      4   180.00   4.60240   2 ;     C9-   C11-   C10-    H6
   867    885    886    908      4   180.00   4.60240   2 ;     C9-   C25-   C26-   H18
   868    870    869    897      4   180.00   4.60240   2 ;    C10-   C12-   C11-    H7
   868    886    867    866      4   180.00   4.60240   2 ;    C10-   C26-    C9-    S3
   869    885    870    871      4   180.00   4.60240   2 ;    C11-   C25-   C12-    S4
   870    886    885    907      4   180.00   4.60240   2 ;    C12-   C26-   C25-   H17
   872    874    873    898      4   180.00   4.60240   2 ;    C13-   C15-   C14-    H8
   872    883    884    906      4   180.00   4.60240   2 ;    C13-   C23-   C24-   H16
   873    875    874    899      4   180.00   4.60240   2 ;    C14-   C16-   C15-    H9
   873    884    872    871      4   180.00   4.60240   2 ;    C14-   C24-   C13-    S4
   874    883    875    876      4   180.00   4.60240   2 ;    C15-   C23-   C16-    S5
   875    884    883    905      4   180.00   4.60240   2 ;    C16-   C24-   C23-   H15
   877    879    878    900      4   180.00   4.60240   2 ;    C17-   C19-   C18-   H10
   877    881    882    904      4   180.00   4.60240   2 ;    C17-   C21-   C22-   H14
   878    880    879    901      4   180.00   4.60240   2 ;    C18-   C20-   C19-   H11
   878    882    877    876      4   180.00   4.60240   2 ;    C18-   C22-   C17-    S5
   879    881    880    902      4   180.00   4.60240   2 ;    C19-   C21-   C20-   H12
   880    882    881    903      4   180.00   4.60240   2 ;    C20-   C22-   C21-   H13
   914    916    915    949      4   180.00   4.60240   2 ;     C1-    C3-    C2-    H2
   914    946    947    969      4   180.00   4.60240   2 ;     C1-   C29-   C30-   H22
   915    917    916    950      4   180.00   4.60240   2 ;     C2-    C4-    C3-    H3
   915    947    914    913      4   180.00   4.60240   2 ;     C2-   C30-    C1-    S1
   916    946    917    918      4   180.00   4.60240   2 ;     C3-   C29-    C4-    S2
   917    947    946    968      4   180.00   4.60240   2 ;     C4-   C30-   C29-   H21
   919    921    920    951      4   180.00   4.60240   2 ;     C5-    C7-    C6-    H4
   919    944    945    967      4   180.00   4.60240   2 ;     C5-   C27-   C28-   H20
   920    922    921    952      4   180.00   4.60240   2 ;     C6-    C8-    C7-    H5
   920    945    919    918      4   180.00   4.60240   2 ;     C6-   C28-    C5-    S2
   921    944    922    923      4   180.00   4.60240   2 ;     C7-   C27-    C8-    S3
   922    945    944    966      4   180.00   4.60240   2 ;     C8-   C28-   C27-   H19
   924    926    925    953      4   180.00   4.60240   2 ;     C9-   C11-   C10-    H6
   924    942    943    965      4   180.00   4.60240   2 ;     C9-   C25-   C26-   H18
   925    927    926    954      4   180.00   4.60240   2 ;    C10-   C12-   C11-    H7
   925    943    924    923      4   180.00   4.60240   2 ;    C10-   C26-    C9-    S3
   926    942    927    928      4   180.00   4.60240   2 ;    C11-   C25-   C12-    S4
   927    943    942    964      4   180.00   4.60240   2 ;    C12-   C26-   C25-   H17
   929    931    930    955      4   180.00   4.60240   2 ;    C13-   C15-   C14-    H8
   929    940    941    963      4   180.00   4.60240   2 ;    C13-   C23-   C24-   H16
   930    932    931    956      4   180.00   4.60240   2 ;    C14-   C16-   C15-    H9
   930    941    929    928      4   180.00   4.60240   2 ;    C14-   C24-   C13-    S4
   931    940    932    933      4   180.00   4.60240   2 ;    C15-   C23-   C16-    S5
   932    941    940    962      4   180.00   4.60240   2 ;    C16-   C24-   C23-   H15
   934    936    935    957      4   180.00   4.60240   2 ;    C17-   C19-   C18-   H10
   934    938    939    961      4   180.00   4.60240   2 ;    C17-   C21-   C22-   H14
   935    937    936    958      4   180.00   4.60240   2 ;    C18-   C20-   C19-   H11
   935    939    934    933      4   180.00   4.60240   2 ;    C18-   C22-   C17-    S5
   936    938    937    959      4   180.00   4.60240   2 ;    C19-   C21-   C20-   H12
   937    939    938    960      4   180.00   4.60240   2 ;    C20-   C22-   C21-   H13
   971    973    972   1006      4   180.00   4.60240   2 ;     C1-    C3-    C2-    H2
   971   1003   1004   1026      4   180.00   4.60240   2 ;     C1-   C29-   C30-   H22
   972    974    973   1007      4   180.00   4.60240   2 ;     C2-    C4-    C3-    H3
   972   1004    971    970      4   180.00   4.60240   2 ;     C2-   C30-    C1-    S1
   973   1003    974    975      4   180.00   4.60240   2 ;     C3-   C29-    C4-    S2
   974   1004   1003   1025      4   180.00   4.60240   2 ;     C4-   C30-   C29-   H21
   976    978    977   1008      4   180.00   4.60240   2 ;     C5-    C7-    C6-    H4
   976   1001   1002   1024      4   180.00   4.60240   2 ;     C5-   C27-   C28-   H20
   977    979    978   1009      4   180.00   4.60240   2 ;     C6-    C8-    C7-    H5
   977   1002    976    975      4   180.00   4.60240   2 ;     C6-   C28-    C5-    S2
   978   1001    979    980      4   180.00   4.60240   2 ;     C7-   C27-    C8-    S3
   979   1002   1001   1023      4   180.00   4.60240   2 ;     C8-   C28-   C27-   H19
   981    983    982   1010      4   180.00   4.60240   2 ;     C9-   C11-   C10-    H6
   981    999   1000   1022      4   180.00   4.60240   2 ;     C9-   C25-   C26-   H18
   982    984    983   1011      4   180.00   4.60240   2 ;    C10-   C12-   C11-    H7
   982   1000    981    980      4   180.00   4.60240   2 ;    C10-   C26-    C9-    S3
   983    999    984    985      4   180.00   4.60240   2 ;    C11-   C25-   C12-    S4
   984   1000    999   1021      4   180.00   4.60240   2 ;    C12-   C26-   C25-   H17
   986    988    987   1012      4   180.00   4.60240   2 ;    C13-   C15-   C14-    H8
   986    997    998   1020      4   180.00   4.60240   2 ;    C13-   C23-   C24-   H16
   987    989    988   1013      4   180.00   4.60240   2 ;    C14-   C16-   C15-    H9
   987    998    986    985      4   180.00   4.60240   2 ;    C14-   C24-   C13-    S4
   988    997    989    990      4   180.00   4.60240   2 ;    C15-   C23-   C16-    S5
   989    998    997   1019      4   180.00   4.60240   2 ;    C16-   C24-   C23-   H15
   991    993    992   1014      4   180.00   4.60240   2 ;    C17-   C19-   C18-   H10
   991    995    996   1018      4   180.00   4.60240   2 ;    C17-   C21-   C22-   H14
   992    994    993   1015      4   180.00   4.60240   2 ;    C18-   C20-   C19-   H11
   992    996    991    990      4   180.00   4.60240   2 ;    C18-   C22-   C17-    S5
   993    995    994   1016      4   180.00   4.60240   2 ;    C19-   C21-   C20-   H12
   994    996    995   1017      4   180.00   4.60240   2 ;    C20-   C22-   C21-   H13
  1028   1030   1029   1063      4   180.00   4.60240   2 ;     C1-    C3-    C2-    H2
  1028   1060   1061   1083      4   180.00   4.60240   2 ;     C1-   C29-   C30-   H22
  1029   1031   1030   1064      4   180.00   4.60240   2 ;     C2-    C4-    C3-    H3
  1029   1061   1028   1027      4   180.00   4.60240   2 ;     C2-   C30-    C1-    S1
  1030   1060   1031   1032      4   180.00   4.60240   2 ;     C3-   C29-    C4-    S2
  1031   1061   1060   1082      4   180.00   4.60240   2 ;     C4-   C30-   C29-   H21
  1033   1035   1034   1065      4   180.00   4.60240   2 ;     C5-    C7-    C6-    H4
  1033   1058   1059   1081      4   180.00   4.60240   2 ;     C5-   C27-   C28-   H20
  1034   1036   1035   1066      4   180.00   4.60240   2 ;     C6-    C8-    C7-    H5
  1034   1059   1033   1032      4   180.00   4.60240   2 ;     C6-   C28-    C5-    S2
  1035   1058   1036   1037      4   180.00   4.60240   2 ;     C7-   C27-    C8-    S3
  1036   1059   1058   1080      4   180.00   4.60240   2 ;     C8-   C28-   C27-   H19
  1038   1040   1039   1067      4   180.00   4.60240   2 ;     C9-   C11-   C10-    H6
  1038   1056   1057   1079      4   180.00   4.60240   2 ;     C9-   C25-   C26-   H18
  1039   1041   1040   1068      4   180.00   4.60240   2 ;    C10-   C12-   C11-    H7
  1039   1057   1038   1037      4   180.00   4.60240   2 ;    C10-   C26-    C9-    S3
  1040   1056   1041   1042      4   180.00   4.60240   2 ;    C11-   C25-   C12-    S4
  1041   1057   1056   1078      4   180.00   4.60240   2 ;    C12-   C26-   C25-   H17
  1043   1045   1044   1069      4   180.00   4.60240   2 ;    C13-   C15-   C14-    H8
  1043   1054   1055   1077      4   180.00   4.60240   2 ;    C13-   C23-   C24-   H16
  1044   1046   1045   1070      4   180.00   4.60240   2 ;    C14-   C16-   C15-    H9
  1044   1055   1043   1042      4   180.00   4.60240   2 ;    C14-   C24-   C13-    S4
  1045   1054   1046   1047      4   180.00   4.60240   2 ;    C15-   C23-   C16-    S5
  1046   1055   1054   1076      4   180.00   4.60240   2 ;    C16-   C24-   C23-   H15
  1048   1050   1049   1071      4   180.00   4.60240   2 ;    C17-   C19-   C18-   H10
  1048   1052   1053   1075      4   180.00   4.60240   2 ;    C17-   C21-   C22-   H14
  1049   1051   1050   1072      4   180.00   4.60240   2 ;    C18-   C20-   C19-   H11
  1049   1053   1048   1047      4   180.00   4.60240   2 ;    C18-   C22-   C17-    S5
  1050   1052   1051   1073      4   180.00   4.60240   2 ;    C19-   C21-   C20-   H12
  1051   1053   1052   1074      4   180.00   4.60240   2 ;    C20-   C22-   C21-   H13
  1085   1087   1086   1120      4   180.00   4.60240   2 ;     C1-    C3-    C2-    H2
  1085   1117   1118   1140      4   180.00   4.60240   2 ;     C1-   C29-   C30-   H22
  1086   1088   1087   1121      4   180.00   4.60240   2 ;     C2-    C4-    C3-    H3
  1086   1118   1085   1084      4   180.00   4.60240   2 ;     C2-   C30-    C1-    S1
  1087   1117   1088   1089      4   180.00   4.60240   2 ;     C3-   C29-    C4-    S2
  1088   1118   1117   1139      4   180.00   4.60240   2 ;     C4-   C30-   C29-   H21
  1090   1092   1091   1122      4   180.00   4.60240   2 ;     C5-    C7-    C6-    H4
  1090   1115   1116   1138      4   180.00   4.60240   2 ;     C5-   C27-   C28-   H20
  1091   1093   1092   1123      4   180.00   4.60240   2 ;     C6-    C8-    C7-    H5
  1091   1116   1090   1089      4   180.00   4.60240   2 ;     C6-   C28-    C5-    S2
  1092   1115   1093   1094      4   180.00   4.60240   2 ;     C7-   C27-    C8-    S3
  1093   1116   1115   1137      4   180.00   4.60240   2 ;     C8-   C28-   C27-   H19
  1095   1097   1096   1124      4   180.00   4.60240   2 ;     C9-   C11-   C10-    H6
  1095   1113   1114   1136      4   180.00   4.60240   2 ;     C9-   C25-   C26-   H18
  1096   1098   1097   1125      4   180.00   4.60240   2 ;    C10-   C12-   C11-    H7
  1096   1114   1095   1094      4   180.00   4.60240   2 ;    C10-   C26-    C9-    S3
  1097   1113   1098   1099      4   180.00   4.60240   2 ;    C11-   C25-   C12-    S4
  1098   1114   1113   1135      4   180.00   4.60240   2 ;    C12-   C26-   C25-   H17
  1100   1102   1101   1126      4   180.00   4.60240   2 ;    C13-   C15-   C14-    H8
  1100   1111   1112   1134      4   180.00   4.60240   2 ;    C13-   C23-   C24-   H16
  1101   1103   1102   1127      4   180.00   4.60240   2 ;    C14-   C16-   C15-    H9
  1101   1112   1100   1099      4   180.00   4.60240   2 ;    C14-   C24-   C13-    S4
  1102   1111   1103   1104      4   180.00   4.60240   2 ;    C15-   C23-   C16-    S5
  1103   1112   1111   1133      4   180.00   4.60240   2 ;    C16-   C24-   C23-   H15
  1105   1107   1106   1128      4   180.00   4.60240   2 ;    C17-   C19-   C18-   H10
  1105   1109   1110   1132      4   180.00   4.60240   2 ;    C17-   C21-   C22-   H14
  1106   1108   1107   1129      4   180.00   4.60240   2 ;    C18-   C20-   C19-   H11
  1106   1110   1105   1104      4   180.00   4.60240   2 ;    C18-   C22-   C17-    S5
  1107   1109   1108   1130      4   180.00   4.60240   2 ;    C19-   C21-   C20-   H12
  1108   1110   1109   1131      4   180.00   4.60240   2 ;    C20-   C22-   C21-   H13

[ system ]
 system

[ molecules ]
; Compound        nmols
 system           1     
