system_GMX.gro created by acpype (v: 2023.10.27) on Tue Jul 14 23:43:02 2026
 1000
    1  UNL   C1    1   2.191   1.790   0.324
    1  UNL   C2    2   2.120   1.892   0.413
    1  UNL   C3    3   2.200   1.910   0.542
    1  UNL   C4    4   1.975   1.849   0.445
    1  UNL   C5    5   1.865   1.921   0.363
    1  UNL   C6    6   1.880   1.896   0.213
    1  UNL   C7    7   1.727   1.877   0.417
    1  UNL   C8    8   1.598   1.945   0.364
    1  UNL   C9    9   1.548   1.882   0.233
    1  UNL  C10   10   1.611   2.098   0.356
    1  UNL  C11   11   1.483   2.176   0.316
    1  UNL  C12   12   1.520   2.324   0.301
    1  UNL  C13   13   1.369   2.153   0.418
    1  UNL  C14   14   1.231   2.219   0.393
    1  UNL  C15   15   1.223   2.364   0.442
    1  UNL  C16   16   1.183   2.207   0.248
    1  UNL   H1   17   2.201   1.693   0.375
    1  UNL   H2   18   2.137   1.773   0.230
    1  UNL   H3   19   2.292   1.825   0.298
    1  UNL   H4   20   2.119   1.989   0.361
    1  UNL   H5   21   2.205   1.817   0.599
    1  UNL   H6   22   2.303   1.941   0.520
    1  UNL   H7   23   2.155   1.987   0.606
    1  UNL   H8   24   1.965   1.740   0.432
    1  UNL   H9   25   1.955   1.868   0.551
    1  UNL  H10   26   1.877   2.029   0.381
    1  UNL  H11   27   1.810   1.957   0.155
    1  UNL  H12   28   1.864   1.791   0.188
    1  UNL  H13   29   1.980   1.926   0.177
    1  UNL  H14   30   1.728   1.895   0.526
    1  UNL  H15   31   1.717   1.768   0.406
    1  UNL  H16   32   1.522   1.921   0.439
    1  UNL  H17   33   1.602   1.919   0.146
    1  UNL  H18   34   1.443   1.906   0.218
    1  UNL  H19   35   1.557   1.773   0.236
    1  UNL  H20   36   1.689   2.123   0.283
    1  UNL  H21   37   1.646   2.136   0.453
    1  UNL  H22   38   1.451   2.141   0.217
    1  UNL  H23   39   1.611   2.336   0.241
    1  UNL  H24   40   1.538   2.371   0.398
    1  UNL  H25   41   1.442   2.380   0.249
    1  UNL  H26   42   1.404   2.180   0.518
    1  UNL  H27   43   1.349   2.046   0.421
    1  UNL  H28   44   1.160   2.163   0.454
    1  UNL  H29   45   1.279   2.433   0.379
    1  UNL  H30   46   1.260   2.373   0.545
    1  UNL  H31   47   1.119   2.398   0.441
    1  UNL  H32   48   1.244   2.268   0.180
    1  UNL  H33   49   1.188   2.103   0.215
    1  UNL  H34   50   1.080   2.241   0.239
    2  UNL   C1   51   1.071   1.411   2.367
    2  UNL   C2   52   1.217   1.367   2.347
    2  UNL   C3   53   1.223   1.214   2.354
    2  UNL   C4   54   1.310   1.429   2.454
    2  UNL   C5   55   1.394   1.549   2.404
    2  UNL   C6   56   1.307   1.665   2.357
    2  UNL   C7   57   1.492   1.589   2.518
    2  UNL   C8   58   1.600   1.698   2.491
    2  UNL   C9   59   1.546   1.840   2.509
    2  UNL  C10   60   1.673   1.677   2.357
    2  UNL  C11   61   1.791   1.773   2.328
    2  UNL  C12   62   1.841   1.745   2.185
    2  UNL  C13   63   1.903   1.759   2.433
    2  UNL  C14   64   2.028   1.849   2.424
    2  UNL  C15   65   2.135   1.796   2.328
    2  UNL  C16   66   1.995   1.995   2.394
    2  UNL   H1   67   1.032   1.377   2.463
    2  UNL   H2   68   1.061   1.520   2.363
    2  UNL   H3   69   1.008   1.370   2.288
    2  UNL   H4   70   1.250   1.396   2.247
    2  UNL   H5   71   1.192   1.177   2.452
    2  UNL   H6   72   1.157   1.169   2.278
    2  UNL   H7   73   1.325   1.178   2.335
    2  UNL   H8   74   1.251   1.459   2.542
    2  UNL   H9   75   1.379   1.352   2.489
    2  UNL  H10   76   1.453   1.514   2.319
    2  UNL  H11   77   1.367   1.744   2.312
    2  UNL  H12   78   1.250   1.708   2.440
    2  UNL  H13   79   1.237   1.634   2.279
    2  UNL  H14   80   1.547   1.499   2.547
    2  UNL  H15   81   1.434   1.618   2.607
    2  UNL  H16   82   1.673   1.683   2.572
    2  UNL  H17   83   1.491   1.875   2.422
    2  UNL  H18   84   1.629   1.910   2.526
    2  UNL  H19   85   1.481   1.847   2.596
    2  UNL  H20   86   1.600   1.689   2.276
    2  UNL  H21   87   1.709   1.574   2.352
    2  UNL  H22   88   1.753   1.876   2.329
    2  UNL  H23   89   1.757   1.740   2.115
    2  UNL  H24   90   1.895   1.650   2.180
    2  UNL  H25   91   1.906   1.825   2.149
    2  UNL  H26   92   1.935   1.654   2.439
    2  UNL  H27   93   1.859   1.781   2.531
    2  UNL  H28   94   2.074   1.847   2.524
    2  UNL  H29   95   2.107   1.805   2.223
    2  UNL  H30   96   2.156   1.690   2.349
    2  UNL  H31   97   2.229   1.851   2.342
    2  UNL  H32   98   1.957   2.009   2.292
    2  UNL  H33   99   1.920   2.033   2.464
    2  UNL  H34  100   2.085   2.058   2.404
    3  UNL   C1  101   1.429   2.268   1.735
    3  UNL   C2  102   1.344   2.379   1.672
    3  UNL   C3  103   1.418   2.512   1.686
    3  UNL   C4  104   1.205   2.388   1.739
    3  UNL   C5  105   1.089   2.324   1.657
    3  UNL   C6  106   1.110   2.175   1.634
    3  UNL   C7  107   0.956   2.355   1.730
    3  UNL   C8  108   0.821   2.317   1.664
    3  UNL   C9  109   0.782   2.171   1.689
    3  UNL  C10  110   0.815   2.355   1.514
    3  UNL  C11  111   0.680   2.332   1.442
    3  UNL  C12  112   0.699   2.363   1.293
    3  UNL  C13  113   0.567   2.416   1.506
    3  UNL  C14  114   0.423   2.403   1.451
    3  UNL  C15  115   0.396   2.492   1.329
    3  UNL  C16  116   0.381   2.259   1.425
    3  UNL   H1  117   1.449   2.288   1.841
    3  UNL   H2  118   1.380   2.170   1.729
    3  UNL   H3  119   1.525   2.259   1.684
    3  UNL   H4  120   1.333   2.358   1.565
    3  UNL   H5  121   1.432   2.539   1.791
    3  UNL   H6  122   1.517   2.506   1.638
    3  UNL   H7  123   1.363   2.592   1.636
    3  UNL   H8  124   1.208   2.343   1.839
    3  UNL   H9  125   1.180   2.494   1.754
    3  UNL  H10  126   1.088   2.374   1.559
    3  UNL  H11  127   1.035   2.134   1.568
    3  UNL  H12  128   1.108   2.119   1.729
    3  UNL  H13  129   1.206   2.155   1.586
    3  UNL  H14  130   0.952   2.464   1.745
    3  UNL  H15  131   0.959   2.313   1.831
    3  UNL  H16  132   0.746   2.377   1.717
    3  UNL  H17  133   0.833   2.102   1.623
    3  UNL  H18  134   0.674   2.157   1.674
    3  UNL  H19  135   0.803   2.142   1.793
    3  UNL  H20  136   0.892   2.297   1.461
    3  UNL  H21  137   0.843   2.461   1.504
    3  UNL  H22  138   0.655   2.226   1.450
    3  UNL  H23  139   0.790   2.315   1.255
    3  UNL  H24  140   0.709   2.471   1.276
    3  UNL  H25  141   0.616   2.325   1.233
    3  UNL  H26  142   0.596   2.522   1.507
    3  UNL  H27  143   0.560   2.387   1.612
    3  UNL  H28  144   0.357   2.442   1.530
    3  UNL  H29  145   0.446   2.456   1.239
    3  UNL  H30  146   0.430   2.595   1.348
    3  UNL  H31  147   0.289   2.496   1.308
    3  UNL  H32  148   0.435   2.215   1.340
    3  UNL  H33  149   0.398   2.197   1.513
    3  UNL  H34  150   0.274   2.254   1.401
    4  UNL   C1  151   0.353   1.854   1.472
    4  UNL   C2  152   0.433   1.851   1.602
    4  UNL   C3  153   0.562   1.931   1.583
    4  UNL   C4  154   0.464   1.707   1.647
    4  UNL   C5  155   0.375   1.653   1.762
    4  UNL   C6  156   0.227   1.649   1.722
    4  UNL   C7  157   0.429   1.514   1.804
    4  UNL   C8  158   0.368   1.442   1.927
    4  UNL   C9  159   0.241   1.363   1.892
    4  UNL  C10  160   0.349   1.536   2.048
    4  UNL  C11  161   0.301   1.470   2.180
    4  UNL  C12  162   0.276   1.581   2.282
    4  UNL  C13  163   0.401   1.364   2.230
    4  UNL  C14  164   0.368   1.284   2.358
    4  UNL  C15  165   0.407   1.357   2.487
    4  UNL  C16  166   0.224   1.235   2.364
    4  UNL   H1  167   0.410   1.810   1.389
    4  UNL   H2  168   0.259   1.798   1.480
    4  UNL   H3  169   0.327   1.956   1.444
    4  UNL   H4  170   0.374   1.902   1.680
    4  UNL   H5  171   0.626   1.885   1.507
    4  UNL   H6  172   0.540   2.034   1.551
    4  UNL   H7  173   0.619   1.936   1.676
    4  UNL   H8  174   0.459   1.639   1.561
    4  UNL   H9  175   0.568   1.703   1.682
    4  UNL  H10  176   0.385   1.722   1.846
    4  UNL  H11  177   0.164   1.622   1.806
    4  UNL  H12  178   0.210   1.578   1.641
    4  UNL  H13  179   0.192   1.747   1.690
    4  UNL  H14  180   0.536   1.527   1.826
    4  UNL  H15  181   0.426   1.446   1.718
    4  UNL  H16  182   0.443   1.366   1.954
    4  UNL  H17  183   0.152   1.427   1.887
    4  UNL  H18  184   0.221   1.287   1.968
    4  UNL  H19  185   0.251   1.311   1.797
    4  UNL  H20  186   0.277   1.613   2.021
    4  UNL  H21  187   0.444   1.588   2.067
    4  UNL  H22  188   0.204   1.422   2.160
    4  UNL  H23  189   0.217   1.663   2.238
    4  UNL  H24  190   0.370   1.624   2.318
    4  UNL  H25  191   0.219   1.545   2.367
    4  UNL  H26  192   0.500   1.410   2.241
    4  UNL  H27  193   0.412   1.288   2.151
    4  UNL  H28  194   0.432   1.195   2.355
    4  UNL  H29  195   0.341   1.441   2.510
    4  UNL  H30  196   0.509   1.394   2.482
    4  UNL  H31  197   0.402   1.288   2.572
    4  UNL  H32  198   0.153   1.317   2.376
    4  UNL  H33  199   0.198   1.181   2.272
    4  UNL  H34  200   0.210   1.166   2.448
    5  UNL   C1  201   0.556   0.720   0.205
    5  UNL   C2  202   0.539   0.751   0.354
    5  UNL   C3  203   0.479   0.891   0.370
    5  UNL   C4  204   0.674   0.742   0.430
    5  UNL   C5  205   0.694   0.612   0.512
    5  UNL   C6  206   0.692   0.488   0.424
    5  UNL   C7  207   0.826   0.626   0.593
    5  UNL   C8  208   0.865   0.517   0.696
    5  UNL   C9  209   0.936   0.398   0.631
    5  UNL  C10  210   0.747   0.475   0.785
    5  UNL  C11  211   0.779   0.376   0.900
    5  UNL  C12  212   0.647   0.337   0.968
    5  UNL  C13  213   0.882   0.435   0.999
    5  UNL  C14  214   0.930   0.349   1.118
    5  UNL  C15  215   0.836   0.354   1.239
    5  UNL  C16  216   0.963   0.205   1.080
    5  UNL   H1  217   0.621   0.794   0.157
    5  UNL   H2  218   0.600   0.622   0.189
    5  UNL   H3  219   0.460   0.723   0.154
    5  UNL   H4  220   0.468   0.680   0.397
    5  UNL   H5  221   0.545   0.968   0.329
    5  UNL   H6  222   0.383   0.898   0.316
    5  UNL   H7  223   0.460   0.914   0.475
    5  UNL   H8  224   0.758   0.755   0.360
    5  UNL   H9  225   0.681   0.827   0.500
    5  UNL  H10  226   0.611   0.605   0.583
    5  UNL  H11  227   0.695   0.396   0.483
    5  UNL  H12  228   0.776   0.487   0.354
    5  UNL  H13  229   0.600   0.481   0.366
    5  UNL  H14  230   0.819   0.720   0.649
    5  UNL  H15  231   0.910   0.640   0.523
    5  UNL  H16  232   0.940   0.565   0.759
    5  UNL  H17  233   0.867   0.327   0.585
    5  UNL  H18  234   0.993   0.342   0.707
    5  UNL  H19  235   1.008   0.430   0.555
    5  UNL  H20  236   0.670   0.429   0.722
    5  UNL  H21  237   0.702   0.565   0.828
    5  UNL  H22  238   0.820   0.285   0.856
    5  UNL  H23  239   0.571   0.310   0.893
    5  UNL  H24  240   0.607   0.420   1.028
    5  UNL  H25  241   0.659   0.249   1.032
    5  UNL  H26  242   0.844   0.531   1.037
    5  UNL  H27  243   0.972   0.459   0.942
    5  UNL  H28  244   1.024   0.395   1.152
    5  UNL  H29  245   0.743   0.299   1.223
    5  UNL  H30  246   0.811   0.458   1.264
    5  UNL  H31  247   0.885   0.310   1.327
    5  UNL  H32  248   0.873   0.148   1.053
    5  UNL  H33  249   1.032   0.203   0.995
    5  UNL  H34  250   1.011   0.153   1.163
    6  UNL   C1  251   0.261   2.514   1.997
    6  UNL   C2  252   0.314   2.380   1.947
    6  UNL   C3  253   0.260   2.354   1.806
    6  UNL   C4  254   0.276   2.264   2.042
    6  UNL   C5  255   0.390   2.216   2.136
    6  UNL   C6  256   0.438   2.327   2.229
    6  UNL   C7  257   0.339   2.091   2.213
    6  UNL   C8  258   0.437   2.012   2.303
    6  UNL   C9  259   0.450   2.072   2.443
    6  UNL  C10  260   0.574   1.987   2.236
    6  UNL  C11  261   0.674   1.897   2.313
    6  UNL  C12  262   0.806   1.896   2.236
    6  UNL  C13  263   0.617   1.755   2.336
    6  UNL  C14  264   0.701   1.652   2.415
    6  UNL  C15  265   0.804   1.579   2.330
    6  UNL  C16  266   0.764   1.710   2.542
    6  UNL   H1  267   0.151   2.514   2.000
    6  UNL   H2  268   0.296   2.537   2.098
    6  UNL   H3  269   0.293   2.595   1.931
    6  UNL   H4  270   0.424   2.386   1.939
    6  UNL   H5  271   0.150   2.345   1.807
    6  UNL   H6  272   0.287   2.435   1.738
    6  UNL   H7  273   0.301   2.261   1.765
    6  UNL   H8  274   0.188   2.292   2.102
    6  UNL   H9  275   0.244   2.178   1.982
    6  UNL  H10  276   0.474   2.186   2.071
    6  UNL  H11  277   0.526   2.295   2.286
    6  UNL  H12  278   0.360   2.357   2.299
    6  UNL  H13  279   0.471   2.415   2.172
    6  UNL  H14  280   0.303   2.019   2.137
    6  UNL  H15  281   0.251   2.118   2.271
    6  UNL  H16  282   0.388   1.915   2.317
    6  UNL  H17  283   0.519   2.157   2.446
    6  UNL  H18  284   0.489   1.998   2.513
    6  UNL  H19  285   0.353   2.105   2.481
    6  UNL  H20  286   0.622   2.083   2.218
    6  UNL  H21  287   0.556   1.942   2.136
    6  UNL  H22  288   0.693   1.944   2.410
    6  UNL  H23  289   0.836   1.997   2.207
    6  UNL  H24  290   0.798   1.836   2.144
    6  UNL  H25  291   0.888   1.856   2.297
    6  UNL  H26  292   0.589   1.711   2.239
    6  UNL  H27  293   0.523   1.766   2.392
    6  UNL  H28  294   0.629   1.575   2.449
    6  UNL  H29  295   0.889   1.641   2.302
    6  UNL  H30  296   0.758   1.539   2.239
    6  UNL  H31  297   0.844   1.493   2.386
    6  UNL  H32  298   0.843   1.782   2.518
    6  UNL  H33  299   0.689   1.761   2.603
    6  UNL  H34  300   0.808   1.631   2.602
    7  UNL   C1  301   1.817   2.210   1.350
    7  UNL   C2  302   1.791   2.065   1.307
    7  UNL   C3  303   1.679   2.007   1.394
    7  UNL   C4  304   1.918   1.979   1.317
    7  UNL   C5  305   1.990   1.951   1.182
    7  UNL   C6  306   2.036   2.080   1.114
    7  UNL   C7  307   2.106   1.852   1.207
    7  UNL   C8  308   2.186   1.795   1.088
    7  UNL   C9  309   2.298   1.888   1.042
    7  UNL  C10  310   2.095   1.748   0.972
    7  UNL  C11  311   2.165   1.678   0.853
    7  UNL  C12  312   2.060   1.652   0.744
    7  UNL  C13  313   2.237   1.548   0.898
    7  UNL  C14  314   2.316   1.466   0.794
    7  UNL  C15  315   2.229   1.369   0.714
    7  UNL  C16  316   2.403   1.551   0.703
    7  UNL   H1  317   1.847   2.215   1.455
    7  UNL   H2  318   1.897   2.256   1.291
    7  UNL   H3  319   1.727   2.271   1.338
    7  UNL   H4  320   1.754   2.066   1.203
    7  UNL   H5  321   1.710   2.003   1.499
    7  UNL   H6  322   1.589   2.068   1.387
    7  UNL   H7  323   1.654   1.906   1.362
    7  UNL   H8  324   1.990   2.024   1.387
    7  UNL   H9  325   1.892   1.881   1.360
    7  UNL  H10  326   1.916   1.903   1.116
    7  UNL  H11  327   2.076   2.061   1.015
    7  UNL  H12  328   2.114   2.130   1.174
    7  UNL  H13  329   1.954   2.150   1.100
    7  UNL  H14  330   2.062   1.765   1.259
    7  UNL  H15  331   2.176   1.896   1.279
    7  UNL  H16  332   2.236   1.706   1.129
    7  UNL  H17  333   2.262   1.968   0.977
    7  UNL  H18  334   2.373   1.832   0.985
    7  UNL  H19  335   2.350   1.933   1.127
    7  UNL  H20  336   2.042   1.836   0.932
    7  UNL  H21  337   2.018   1.681   1.012
    7  UNL  H22  338   2.239   1.747   0.811
    7  UNL  H23  339   2.001   1.742   0.726
    7  UNL  H24  340   1.991   1.572   0.773
    7  UNL  H25  341   2.107   1.626   0.649
    7  UNL  H26  342   2.164   1.482   0.948
    7  UNL  H27  343   2.310   1.576   0.975
    7  UNL  H28  344   2.384   1.402   0.853
    7  UNL  H29  345   2.166   1.420   0.641
    7  UNL  H30  346   2.165   1.310   0.780
    7  UNL  H31  347   2.293   1.299   0.658
    7  UNL  H32  348   2.344   1.612   0.634
    7  UNL  H33  349   2.467   1.619   0.762
    7  UNL  H34  350   2.469   1.488   0.643
    8  UNL   C1  351   2.449   1.265   2.263
    8  UNL   C2  352   2.440   1.168   2.146
    8  UNL   C3  353   2.496   1.236   2.021
    8  UNL   C4  354   2.295   1.120   2.121
    8  UNL   C5  355   2.263   0.978   2.175
    8  UNL   C6  356   2.282   0.968   2.326
    8  UNL   C7  357   2.120   0.940   2.129
    8  UNL   C8  358   2.066   0.797   2.155
    8  UNL   C9  359   2.008   0.781   2.296
    8  UNL  C10  360   2.168   0.688   2.119
    8  UNL  C11  361   2.119   0.541   2.130
    8  UNL  C12  362   2.239   0.449   2.103
    8  UNL  C13  363   2.001   0.514   2.034
    8  UNL  C14  364   1.935   0.375   2.033
    8  UNL  C15  365   2.007   0.273   1.944
    8  UNL  C16  366   1.910   0.318   2.173
    8  UNL   H1  367   2.391   1.357   2.243
    8  UNL   H2  368   2.409   1.222   2.356
    8  UNL   H3  369   2.552   1.294   2.282
    8  UNL   H4  370   2.505   1.081   2.167
    8  UNL   H5  371   2.436   1.323   1.993
    8  UNL   H6  372   2.599   1.270   2.037
    8  UNL   H7  373   2.497   1.167   1.936
    8  UNL   H8  374   2.224   1.192   2.164
    8  UNL   H9  375   2.276   1.120   2.013
    8  UNL  H10  376   2.334   0.909   2.127
    8  UNL  H11  377   2.270   0.865   2.360
    8  UNL  H12  378   2.210   1.031   2.379
    8  UNL  H13  379   2.383   0.997   2.356
    8  UNL  H14  380   2.116   0.955   2.020
    8  UNL  H15  381   2.049   1.013   2.170
    8  UNL  H16  382   1.981   0.788   2.087
    8  UNL  H17  383   2.085   0.764   2.371
    8  UNL  H18  384   1.940   0.695   2.299
    8  UNL  H19  385   1.949   0.869   2.325
    8  UNL  H20  386   2.255   0.698   2.185
    8  UNL  H21  387   2.205   0.706   2.017
    8  UNL  H22  388   2.087   0.523   2.233
    8  UNL  H23  389   2.326   0.480   2.161
    8  UNL  H24  390   2.267   0.449   1.997
    8  UNL  H25  391   2.217   0.346   2.134
    8  UNL  H26  392   2.030   0.541   1.932
    8  UNL  H27  393   1.920   0.584   2.060
    8  UNL  H28  394   1.836   0.389   1.987
    8  UNL  H29  395   2.102   0.240   1.987
    8  UNL  H30  396   2.027   0.315   1.845
    8  UNL  H31  397   1.945   0.184   1.930
    8  UNL  H32  398   2.003   0.292   2.224
    8  UNL  H33  399   1.856   0.390   2.235
    8  UNL  H34  400   1.849   0.227   2.167
    9  UNL   C1  401   2.025   1.071   1.019
    9  UNL   C2  402   2.078   0.928   1.032
    9  UNL   C3  403   2.097   0.896   1.181
    9  UNL   C4  404   2.211   0.910   0.956
    9  UNL   C5  405   2.199   0.837   0.819
    9  UNL   C6  406   2.109   0.913   0.722
    9  UNL   C7  407   2.341   0.814   0.764
    9  UNL   C8  408   2.361   0.730   0.635
    9  UNL   C9  409   2.342   0.812   0.507
    9  UNL  C10  410   2.278   0.600   0.636
    9  UNL  C11  411   2.300   0.503   0.517
    9  UNL  C12  412   2.199   0.388   0.530
    9  UNL  C13  413   2.447   0.453   0.512
    9  UNL  C14  414   2.490   0.358   0.397
    9  UNL  C15  415   2.459   0.211   0.425
    9  UNL  C16  416   2.438   0.401   0.260
    9  UNL   H1  417   2.094   1.144   1.063
    9  UNL   H2  418   2.010   1.099   0.914
    9  UNL   H3  419   1.928   1.081   1.070
    9  UNL   H4  420   2.003   0.859   0.993
    9  UNL   H5  421   2.172   0.962   1.227
    9  UNL   H6  422   2.003   0.909   1.236
    9  UNL   H7  423   2.129   0.793   1.194
    9  UNL   H8  424   2.260   1.007   0.941
    9  UNL   H9  425   2.280   0.851   1.018
    9  UNL  H10  426   2.153   0.739   0.839
    9  UNL  H11  427   2.091   0.855   0.631
    9  UNL  H12  428   2.152   1.010   0.695
    9  UNL  H13  429   2.010   0.931   0.764
    9  UNL  H14  430   2.398   0.763   0.842
    9  UNL  H15  431   2.391   0.911   0.751
    9  UNL  H16  432   2.467   0.702   0.637
    9  UNL  H17  433   2.237   0.825   0.481
    9  UNL  H18  434   2.391   0.762   0.422
    9  UNL  H19  435   2.388   0.911   0.516
    9  UNL  H20  436   2.171   0.627   0.637
    9  UNL  H21  437   2.297   0.546   0.729
    9  UNL  H22  438   2.277   0.556   0.424
    9  UNL  H23  439   2.099   0.426   0.549
    9  UNL  H24  440   2.226   0.320   0.612
    9  UNL  H25  441   2.193   0.330   0.437
    9  UNL  H26  442   2.473   0.407   0.608
    9  UNL  H27  443   2.511   0.541   0.502
    9  UNL  H28  444   2.600   0.365   0.393
    9  UNL  H29  445   2.353   0.188   0.418
    9  UNL  H30  446   2.494   0.182   0.525
    9  UNL  H31  447   2.511   0.148   0.352
    9  UNL  H32  448   2.330   0.389   0.252
    9  UNL  H33  449   2.463   0.506   0.241
    9  UNL  H34  450   2.484   0.341   0.181
   10  UNL   C1  451   1.385   0.996   0.516
   10  UNL   C2  452   1.238   1.037   0.509
   10  UNL   C3  453   1.151   0.911   0.508
   10  UNL   C4  454   1.209   1.124   0.384
   10  UNL   C5  455   1.197   1.276   0.412
   10  UNL   C6  456   1.325   1.334   0.470
   10  UNL   C7  457   1.153   1.346   0.281
   10  UNL   C8  458   1.119   1.497   0.282
   10  UNL   C9  459   1.242   1.586   0.269
   10  UNL  C10  460   1.029   1.537   0.401
   10  UNL  C11  461   0.978   1.683   0.403
   10  UNL  C12  462   0.902   1.705   0.535
   10  UNL  C13  463   0.892   1.716   0.279
   10  UNL  C14  464   0.836   1.858   0.261
   10  UNL  C15  465   0.705   1.883   0.337
   10  UNL  C16  466   0.938   1.968   0.291
   10  UNL   H1  467   1.413   0.933   0.430
   10  UNL   H2  468   1.452   1.083   0.516
   10  UNL   H3  469   1.405   0.938   0.607
   10  UNL   H4  470   1.213   1.093   0.600
   10  UNL   H5  471   1.170   0.850   0.418
   10  UNL   H6  472   1.171   0.849   0.596
   10  UNL   H7  473   1.045   0.937   0.509
   10  UNL   H8  474   1.286   1.107   0.308
   10  UNL   H9  475   1.114   1.091   0.340
   10  UNL  H10  476   1.117   1.289   0.487
   10  UNL  H11  477   1.312   1.438   0.500
   10  UNL  H12  478   1.408   1.329   0.398
   10  UNL  H13  479   1.356   1.282   0.561
   10  UNL  H14  480   1.063   1.294   0.246
   10  UNL  H15  481   1.229   1.327   0.203
   10  UNL  H16  482   1.061   1.512   0.189
   10  UNL  H17  483   1.295   1.599   0.364
   10  UNL  H18  484   1.214   1.686   0.234
   10  UNL  H19  485   1.313   1.546   0.195
   10  UNL  H20  486   1.084   1.519   0.494
   10  UNL  H21  487   0.942   1.469   0.403
   10  UNL  H22  488   1.065   1.749   0.405
   10  UNL  H23  489   0.959   1.667   0.620
   10  UNL  H24  490   0.805   1.654   0.534
   10  UNL  H25  491   0.886   1.811   0.554
   10  UNL  H26  492   0.809   1.644   0.272
   10  UNL  H27  493   0.954   1.698   0.190
   10  UNL  H28  494   0.810   1.867   0.155
   10  UNL  H29  495   0.719   1.890   0.445
   10  UNL  H30  496   0.633   1.802   0.317
   10  UNL  H31  497   0.659   1.976   0.304
   10  UNL  H32  498   0.963   1.973   0.398
   10  UNL  H33  499   1.030   1.951   0.235
   10  UNL  H34  500   0.899   2.066   0.262
   11  UNL   C1  501   1.356   0.942   1.648
   11  UNL   C2  502   1.454   0.825   1.631
   11  UNL   C3  503   1.375   0.693   1.636
   11  UNL   C4  504   1.563   0.827   1.740
   11  UNL   C5  505   1.701   0.882   1.693
   11  UNL   C6  506   1.692   1.026   1.645
   11  UNL   C7  507   1.802   0.863   1.809
   11  UNL   C8  508   1.952   0.895   1.786
   11  UNL   C9  509   1.984   1.043   1.804
   11  UNL  C10  510   2.005   0.838   1.653
   11  UNL  C11  511   2.157   0.853   1.627
   11  UNL  C12  512   2.187   0.803   1.485
   11  UNL  C13  513   2.241   0.781   1.735
   11  UNL  C14  514   2.395   0.789   1.728
   11  UNL  C15  515   2.458   0.685   1.635
   11  UNL  C16  516   2.448   0.929   1.699
   11  UNL   H1  517   1.302   0.935   1.743
   11  UNL   H2  518   1.407   1.038   1.645
   11  UNL   H3  519   1.281   0.941   1.567
   11  UNL   H4  520   1.500   0.832   1.532
   11  UNL   H5  521   1.327   0.680   1.733
   11  UNL   H6  522   1.298   0.691   1.559
   11  UNL   H7  523   1.442   0.608   1.618
   11  UNL   H8  524   1.529   0.884   1.827
   11  UNL   H9  525   1.579   0.725   1.776
   11  UNL  H10  526   1.733   0.820   1.608
   11  UNL  H11  527   1.786   1.060   1.602
   11  UNL  H12  528   1.665   1.094   1.727
   11  UNL  H13  529   1.618   1.038   1.566
   11  UNL  H14  530   1.798   0.757   1.838
   11  UNL  H15  531   1.767   0.918   1.897
   11  UNL  H16  532   2.003   0.843   1.868
   11  UNL  H17  533   1.959   1.103   1.716
   11  UNL  H18  534   2.091   1.057   1.823
   11  UNL  H19  535   1.931   1.085   1.890
   11  UNL  H20  536   1.952   0.886   1.570
   11  UNL  H21  537   1.979   0.731   1.648
   11  UNL  H22  538   2.181   0.960   1.629
   11  UNL  H23  539   2.115   0.844   1.413
   11  UNL  H24  540   2.180   0.693   1.480
   11  UNL  H25  541   2.286   0.834   1.451
   11  UNL  H26  542   2.211   0.675   1.739
   11  UNL  H27  543   2.214   0.824   1.832
   11  UNL  H28  544   2.431   0.762   1.829
   11  UNL  H29  545   2.442   0.708   1.529
   11  UNL  H30  546   2.418   0.585   1.654
   11  UNL  H31  547   2.566   0.681   1.650
   11  UNL  H32  548   2.425   0.961   1.597
   11  UNL  H33  549   2.404   1.002   1.768
   11  UNL  H34  550   2.556   0.933   1.711
   12  UNL   C1  551   2.366   2.502   1.142
   12  UNL   C2  552   2.260   2.406   1.195
   12  UNL   C3  553   2.122   2.473   1.183
   12  UNL   C4  554   2.288   2.366   1.342
   12  UNL   C5  555   2.350   2.225   1.361
   12  UNL   C6  556   2.485   2.213   1.291
   12  UNL   C7  557   2.357   2.196   1.513
   12  UNL   C8  558   2.402   2.056   1.562
   12  UNL   C9  559   2.554   2.041   1.568
   12  UNL  C10  560   2.334   1.941   1.484
   12  UNL  C11  561   2.362   1.797   1.534
   12  UNL  C12  562   2.296   1.699   1.436
   12  UNL  C13  563   2.314   1.777   1.680
   12  UNL  C14  564   2.337   1.641   1.749
   12  UNL  C15  565   2.230   1.537   1.717
   12  UNL  C16  566   2.477   1.585   1.726
   12  UNL   H1  567   2.366   2.596   1.198
   12  UNL   H2  568   2.466   2.459   1.149
   12  UNL   H3  569   2.347   2.526   1.036
   12  UNL   H4  570   2.258   2.316   1.132
   12  UNL   H5  571   2.116   2.563   1.245
   12  UNL   H6  572   2.101   2.501   1.079
   12  UNL   H7  573   2.043   2.404   1.215
   12  UNL   H8  574   2.352   2.441   1.390
   12  UNL   H9  575   2.193   2.368   1.398
   12  UNL  H10  576   2.281   2.153   1.315
   12  UNL  H11  577   2.523   2.110   1.295
   12  UNL  H12  578   2.560   2.279   1.337
   12  UNL  H13  579   2.478   2.237   1.185
   12  UNL  H14  580   2.256   2.211   1.553
   12  UNL  H15  581   2.420   2.272   1.561
   12  UNL  H16  582   2.367   2.051   1.666
   12  UNL  H17  583   2.598   2.019   1.470
   12  UNL  H18  584   2.582   1.958   1.635
   12  UNL  H19  585   2.601   2.131   1.608
   12  UNL  H20  586   2.365   1.947   1.379
   12  UNL  H21  587   2.225   1.958   1.485
   12  UNL  H22  588   2.470   1.780   1.529
   12  UNL  H23  589   2.320   1.725   1.332
   12  UNL  H24  590   2.187   1.699   1.447
   12  UNL  H25  591   2.333   1.597   1.451
   12  UNL  H26  592   2.207   1.803   1.686
   12  UNL  H27  593   2.366   1.851   1.742
   12  UNL  H28  594   2.328   1.661   1.857
   12  UNL  H29  595   2.237   1.498   1.615
   12  UNL  H30  596   2.129   1.579   1.731
   12  UNL  H31  597   2.239   1.451   1.785
   12  UNL  H32  598   2.492   1.553   1.622
   12  UNL  H33  599   2.553   1.659   1.751
   12  UNL  H34  600   2.494   1.497   1.790
   13  UNL   C1  601   0.252   2.486   0.636
   13  UNL   C2  602   0.326   2.425   0.756
   13  UNL   C3  603   0.265   2.481   0.885
   13  UNL   C4  604   0.477   2.454   0.750
   13  UNL   C5  605   0.565   2.335   0.702
   13  UNL   C6  606   0.530   2.292   0.560
   13  UNL   C7  607   0.714   2.376   0.717
   13  UNL   C8  608   0.825   2.271   0.691
   13  UNL   C9  609   0.861   2.259   0.542
   13  UNL  C10  610   0.796   2.135   0.756
   13  UNL  C11  611   0.907   2.028   0.746
   13  UNL  C12  612   0.853   1.897   0.806
   13  UNL  C13  613   1.037   2.075   0.815
   13  UNL  C14  614   1.162   1.983   0.812
   13  UNL  C15  615   1.163   1.877   0.922
   13  UNL  C16  616   1.188   1.921   0.674
   13  UNL   H1  617   0.261   2.596   0.636
   13  UNL   H2  618   0.293   2.450   0.541
   13  UNL   H3  619   0.146   2.461   0.639
   13  UNL   H4  620   0.308   2.317   0.756
   13  UNL   H5  621   0.279   2.589   0.892
   13  UNL   H6  622   0.157   2.460   0.889
   13  UNL   H7  623   0.311   2.435   0.973
   13  UNL   H8  624   0.497   2.542   0.687
   13  UNL   H9  625   0.512   2.481   0.851
   13  UNL  H10  626   0.545   2.251   0.770
   13  UNL  H11  627   0.584   2.202   0.532
   13  UNL  H12  628   0.552   2.371   0.488
   13  UNL  H13  629   0.424   2.267   0.551
   13  UNL  H14  630   0.728   2.409   0.821
   13  UNL  H15  631   0.733   2.465   0.656
   13  UNL  H16  632   0.914   2.314   0.739
   13  UNL  H17  633   0.790   2.197   0.487
   13  UNL  H18  634   0.960   2.215   0.530
   13  UNL  H19  635   0.864   2.358   0.494
   13  UNL  H20  636   0.705   2.093   0.711
   13  UNL  H21  637   0.772   2.152   0.863
   13  UNL  H22  638   0.927   2.009   0.640
   13  UNL  H23  639   0.753   1.875   0.766
   13  UNL  H24  640   0.846   1.903   0.915
   13  UNL  H25  641   0.916   1.812   0.779
   13  UNL  H26  642   1.016   2.102   0.919
   13  UNL  H27  643   1.069   2.168   0.766
   13  UNL  H28  644   1.247   2.049   0.833
   13  UNL  H29  645   1.090   1.797   0.904
   13  UNL  H30  646   1.141   1.922   1.019
   13  UNL  H31  647   1.261   1.830   0.928
   13  UNL  H32  648   1.112   1.847   0.648
   13  UNL  H33  649   1.189   1.998   0.597
   13  UNL  H34  650   1.285   1.871   0.673
   14  UNL   C1  651   1.281   0.236   1.084
   14  UNL   C2  652   1.368   0.255   1.209
   14  UNL   C3  653   1.277   0.269   1.331
   14  UNL   C4  654   1.461   0.378   1.196
   14  UNL   C5  655   1.608   0.346   1.161
   14  UNL   C6  656   1.621   0.274   1.027
   14  UNL   C7  657   1.689   0.478   1.166
   14  UNL   C8  658   1.844   0.474   1.150
   14  UNL   C9  659   1.888   0.472   1.004
   14  UNL  C10  660   1.909   0.363   1.234
   14  UNL  C11  661   2.064   0.359   1.235
   14  UNL  C12  662   2.109   0.235   1.313
   14  UNL  C13  663   2.124   0.490   1.293
   14  UNL  C14  664   2.277   0.507   1.298
   14  UNL  C15  665   2.342   0.443   1.421
   14  UNL  C16  666   2.347   0.463   1.170
   14  UNL   H1  667   1.214   0.321   1.070
   14  UNL   H2  668   1.342   0.226   0.994
   14  UNL   H3  669   1.220   0.146   1.093
   14  UNL   H4  670   1.429   0.165   1.224
   14  UNL   H5  671   1.214   0.359   1.324
   14  UNL   H6  672   1.211   0.182   1.341
   14  UNL   H7  673   1.336   0.277   1.423
   14  UNL   H8  674   1.420   0.448   1.121
   14  UNL   H9  675   1.461   0.433   1.291
   14  UNL  H10  676   1.646   0.279   1.240
   14  UNL  H11  677   1.724   0.241   1.009
   14  UNL  H12  678   1.590   0.338   0.944
   14  UNL  H13  679   1.561   0.183   1.024
   14  UNL  H14  680   1.670   0.523   1.265
   14  UNL  H15  681   1.648   0.548   1.093
   14  UNL  H16  682   1.877   0.571   1.190
   14  UNL  H17  683   1.882   0.372   0.960
   14  UNL  H18  684   1.992   0.505   0.995
   14  UNL  H19  685   1.827   0.540   0.943
   14  UNL  H20  686   1.874   0.266   1.198
   14  UNL  H21  687   1.874   0.371   1.338
   14  UNL  H22  688   2.099   0.347   1.132
   14  UNL  H23  689   2.053   0.146   1.280
   14  UNL  H24  690   2.092   0.246   1.421
   14  UNL  H25  691   2.214   0.212   1.296
   14  UNL  H26  692   2.082   0.507   1.394
   14  UNL  H27  693   2.087   0.573   1.232
   14  UNL  H28  694   2.295   0.615   1.309
   14  UNL  H29  695   2.344   0.334   1.417
   14  UNL  H30  696   2.289   0.473   1.513
   14  UNL  H31  697   2.446   0.477   1.431
   14  UNL  H32  698   2.343   0.355   1.156
   14  UNL  H33  699   2.302   0.511   1.083
   14  UNL  H34  700   2.453   0.492   1.172
   15  UNL   C1  701   0.676   1.100   2.157
   15  UNL   C2  702   0.647   1.174   2.026
   15  UNL   C3  703   0.526   1.109   1.958
   15  UNL   C4  704   0.770   1.171   1.931
   15  UNL   C5  705   0.852   1.303   1.927
   15  UNL   C6  706   0.910   1.339   2.064
   15  UNL   C7  707   0.961   1.288   1.818
   15  UNL   C8  708   1.049   1.410   1.781
   15  UNL   C9  709   1.169   1.427   1.874
   15  UNL  C10  710   0.968   1.540   1.764
   15  UNL  C11  711   1.045   1.664   1.714
   15  UNL  C12  712   0.950   1.784   1.716
   15  UNL  C13  713   1.107   1.641   1.574
   15  UNL  C14  714   1.192   1.752   1.509
   15  UNL  C15  715   1.109   1.857   1.436
   15  UNL  C16  716   1.291   1.817   1.606
   15  UNL   H1  717   0.696   0.994   2.139
   15  UNL   H2  718   0.762   1.142   2.209
   15  UNL   H3  719   0.590   1.107   2.224
   15  UNL   H4  720   0.620   1.278   2.049
   15  UNL   H5  721   0.546   1.005   1.931
   15  UNL   H6  722   0.439   1.111   2.024
   15  UNL   H7  723   0.500   1.163   1.866
   15  UNL   H8  724   0.836   1.088   1.958
   15  UNL   H9  725   0.735   1.151   1.829
   15  UNL  H10  726   0.783   1.383   1.897
   15  UNL  H11  727   0.958   1.437   2.062
   15  UNL  H12  728   0.983   1.264   2.097
   15  UNL  H13  729   0.832   1.346   2.140
   15  UNL  H14  730   0.910   1.259   1.725
   15  UNL  H15  731   1.026   1.203   1.843
   15  UNL  H16  732   1.092   1.384   1.683
   15  UNL  H17  733   1.142   1.477   1.968
   15  UNL  H18  734   1.247   1.488   1.827
   15  UNL  H19  735   1.215   1.330   1.898
   15  UNL  H20  736   0.922   1.565   1.860
   15  UNL  H21  737   0.884   1.520   1.695
   15  UNL  H22  738   1.126   1.685   1.785
   15  UNL  H23  739   0.896   1.789   1.812
   15  UNL  H24  740   0.875   1.778   1.636
   15  UNL  H25  741   1.004   1.879   1.707
   15  UNL  H26  742   1.028   1.611   1.504
   15  UNL  H27  743   1.174   1.554   1.582
   15  UNL  H28  744   1.252   1.702   1.431
   15  UNL  H29  745   1.055   1.924   1.503
   15  UNL  H30  746   1.036   1.810   1.368
   15  UNL  H31  747   1.174   1.921   1.374
   15  UNL  H32  748   1.240   1.877   1.682
   15  UNL  H33  749   1.351   1.741   1.656
   15  UNL  H34  750   1.359   1.883   1.552
   16  UNL   C1  751   1.270   0.850   2.472
   16  UNL   C2  752   1.218   0.720   2.411
   16  UNL   C3  753   1.326   0.661   2.320
   16  UNL   C4  754   1.087   0.743   2.332
   16  UNL   C5  755   0.958   0.699   2.406
   16  UNL   C6  756   0.938   0.776   2.536
   16  UNL   C7  757   0.839   0.715   2.308
   16  UNL   C8  758   0.698   0.665   2.350
   16  UNL   C9  759   0.621   0.767   2.434
   16  UNL  C10  760   0.701   0.525   2.414
   16  UNL  C11  761   0.564   0.461   2.448
   16  UNL  C12  762   0.590   0.329   2.522
   16  UNL  C13  763   0.478   0.441   2.320
   16  UNL  C14  764   0.336   0.382   2.334
   16  UNL  C15  765   0.333   0.229   2.338
   16  UNL  C16  766   0.256   0.443   2.448
   16  UNL   H1  767   1.296   0.922   2.394
   16  UNL   H2  768   1.197   0.896   2.538
   16  UNL   H3  769   1.361   0.831   2.532
   16  UNL   H4  770   1.201   0.647   2.492
   16  UNL   H5  771   1.348   0.728   2.236
   16  UNL   H6  772   1.419   0.644   2.375
   16  UNL   H7  773   1.294   0.564   2.279
   16  UNL   H8  774   1.079   0.848   2.303
   16  UNL   H9  775   1.092   0.686   2.238
   16  UNL  H10  776   0.969   0.593   2.431
   16  UNL  H11  777   0.853   0.737   2.593
   16  UNL  H12  778   0.921   0.883   2.517
   16  UNL  H13  779   1.024   0.766   2.603
   16  UNL  H14  780   0.865   0.659   2.217
   16  UNL  H15  781   0.831   0.820   2.277
   16  UNL  H16  782   0.643   0.657   2.255
   16  UNL  H17  783   0.651   0.766   2.539
   16  UNL  H18  784   0.514   0.746   2.431
   16  UNL  H19  785   0.635   0.869   2.395
   16  UNL  H20  786   0.759   0.531   2.508
   16  UNL  H21  787   0.757   0.457   2.348
   16  UNL  H22  788   0.511   0.527   2.516
   16  UNL  H23  789   0.663   0.344   2.603
   16  UNL  H24  790   0.628   0.252   2.455
   16  UNL  H25  791   0.499   0.292   2.570
   16  UNL  H26  792   0.535   0.382   2.247
   16  UNL  H27  793   0.465   0.539   2.274
   16  UNL  H28  794   0.284   0.409   2.241
   16  UNL  H29  795   0.370   0.189   2.433
   16  UNL  H30  796   0.393   0.186   2.257
   16  UNL  H31  797   0.231   0.193   2.326
   16  UNL  H32  798   0.295   0.413   2.546
   16  UNL  H33  799   0.257   0.552   2.443
   16  UNL  H34  800   0.152   0.410   2.444
   17  UNL   C1  801   1.854   2.483   0.825
   17  UNL   C2  802   1.928   2.351   0.845
   17  UNL   C3  803   2.075   2.371   0.807
   17  UNL   C4  804   1.866   2.237   0.761
   17  UNL   C5  805   1.776   2.139   0.841
   17  UNL   C6  806   1.657   2.209   0.905
   17  UNL   C7  807   1.734   2.024   0.745
   17  UNL   C8  808   1.656   1.903   0.802
   17  UNL   C9  809   1.505   1.928   0.810
   17  UNL  C10  810   1.715   1.849   0.933
   17  UNL  C11  811   1.652   1.720   0.991
   17  UNL  C12  812   1.716   1.692   1.127
   17  UNL  C13  813   1.666   1.601   0.892
   17  UNL  C14  814   1.605   1.464   0.930
   17  UNL  C15  815   1.696   1.379   1.019
   17  UNL  C16  816   1.464   1.475   0.988
   17  UNL   H1  817   1.860   2.517   0.721
   17  UNL   H2  818   1.748   2.474   0.851
   17  UNL   H3  819   1.897   2.561   0.889
   17  UNL   H4  820   1.925   2.324   0.951
   17  UNL   H5  821   2.086   2.397   0.701
   17  UNL   H6  822   2.121   2.451   0.866
   17  UNL   H7  823   2.133   2.279   0.825
   17  UNL   H8  824   1.808   2.280   0.677
   17  UNL   H9  825   1.946   2.178   0.715
   17  UNL  H10  826   1.838   2.097   0.921
   17  UNL  H11  827   1.601   2.142   0.970
   17  UNL  H12  828   1.588   2.249   0.829
   17  UNL  H13  829   1.688   2.292   0.969
   17  UNL  H14  830   1.826   1.983   0.702
   17  UNL  H15  831   1.678   2.066   0.661
   17  UNL  H16  832   1.668   1.825   0.725
   17  UNL  H17  833   1.477   1.985   0.899
   17  UNL  H18  834   1.450   1.833   0.815
   17  UNL  H19  835   1.468   1.982   0.722
   17  UNL  H20  836   1.706   1.927   1.010
   17  UNL  H21  837   1.823   1.832   0.919
   17  UNL  H22  838   1.545   1.739   1.008
   17  UNL  H23  839   1.718   1.782   1.189
   17  UNL  H24  840   1.819   1.656   1.116
   17  UNL  H25  841   1.659   1.618   1.183
   17  UNL  H26  842   1.772   1.587   0.868
   17  UNL  H27  843   1.618   1.630   0.798
   17  UNL  H28  844   1.597   1.409   0.835
   17  UNL  H29  845   1.702   1.417   1.122
   17  UNL  H30  846   1.797   1.375   0.979
   17  UNL  H31  847   1.658   1.277   1.024
   17  UNL  H32  848   1.464   1.521   1.087
   17  UNL  H33  849   1.400   1.534   0.922
   17  UNL  H34  850   1.420   1.375   0.998
   18  UNL   C1  851   0.360   0.430   0.543
   18  UNL   C2  852   0.339   0.354   0.675
   18  UNL   C3  853   0.279   0.216   0.644
   18  UNL   C4  854   0.247   0.432   0.772
   18  UNL   C5  855   0.322   0.506   0.886
   18  UNL   C6  856   0.419   0.611   0.833
   18  UNL   C7  857   0.216   0.566   0.982
   18  UNL   C8  858   0.261   0.633   1.114
   18  UNL   C9  859   0.302   0.780   1.095
   18  UNL  C10  860   0.366   0.551   1.190
   18  UNL  C11  861   0.408   0.603   1.330
   18  UNL  C12  862   0.522   0.515   1.382
   18  UNL  C13  863   0.288   0.608   1.427
   18  UNL  C14  864   0.308   0.662   1.570
   18  UNL  C15  865   0.361   0.557   1.668
   18  UNL  C16  866   0.392   0.790   1.575
   18  UNL   H1  867   0.265   0.442   0.490
   18  UNL   H2  868   0.402   0.529   0.560
   18  UNL   H3  869   0.428   0.375   0.478
   18  UNL   H4  870   0.437   0.337   0.721
   18  UNL   H5  871   0.180   0.226   0.597
   18  UNL   H6  872   0.343   0.160   0.575
   18  UNL   H7  873   0.268   0.157   0.735
   18  UNL   H8  874   0.186   0.504   0.716
   18  UNL   H9  875   0.177   0.362   0.818
   18  UNL  H10  876   0.379   0.430   0.941
   18  UNL  H11  877   0.479   0.654   0.913
   18  UNL  H12  878   0.367   0.692   0.781
   18  UNL  H13  879   0.492   0.567   0.764
   18  UNL  H14  880   0.149   0.484   1.011
   18  UNL  H15  881   0.152   0.636   0.926
   18  UNL  H16  882   0.169   0.636   1.175
   18  UNL  H17  883   0.404   0.790   1.057
   18  UNL  H18  884   0.298   0.833   1.190
   18  UNL  H19  885   0.234   0.831   1.026
   18  UNL  H20  886   0.457   0.545   1.128
   18  UNL  H21  887   0.329   0.448   1.201
   18  UNL  H22  888   0.448   0.704   1.317
   18  UNL  H23  889   0.599   0.501   1.305
   18  UNL  H24  890   0.486   0.416   1.412
   18  UNL  H25  891   0.572   0.561   1.467
   18  UNL  H26  892   0.241   0.509   1.432
   18  UNL  H27  893   0.212   0.673   1.382
   18  UNL  H28  894   0.208   0.689   1.606
   18  UNL  H29  895   0.466   0.532   1.651
   18  UNL  H30  896   0.302   0.465   1.662
   18  UNL  H31  897   0.353   0.594   1.771
   18  UNL  H32  898   0.497   0.771   1.549
   18  UNL  H33  899   0.352   0.865   1.506
   18  UNL  H34  900   0.391   0.833   1.676
   19  UNL   C1  901   1.452   2.485   2.096
   19  UNL   C2  902   1.557   2.430   2.193
   19  UNL   C3  903   1.514   2.462   2.337
   19  UNL   C4  904   1.697   2.489   2.164
   19  UNL   C5  905   1.794   2.394   2.088
   19  UNL   C6  906   1.739   2.355   1.951
   19  UNL   C7  907   1.933   2.461   2.081
   19  UNL   C8  908   2.054   2.383   2.023
   19  UNL   C9  909   2.061   2.390   1.870
   19  UNL  C10  910   2.062   2.239   2.077
   19  UNL  C11  911   2.187   2.157   2.035
   19  UNL  C12  912   2.170   2.014   2.088
   19  UNL  C13  913   2.318   2.223   2.084
   19  UNL  C14  914   2.453   2.158   2.048
   19  UNL  C15  915   2.495   2.046   2.143
   19  UNL  C16  916   2.462   2.113   1.902
   19  UNL   H1  917   1.441   2.593   2.107
   19  UNL   H2  918   1.479   2.465   1.992
   19  UNL   H3  919   1.355   2.439   2.115
   19  UNL   H4  920   1.560   2.321   2.184
   19  UNL   H5  921   1.510   2.571   2.353
   19  UNL   H6  922   1.415   2.421   2.358
   19  UNL   H7  923   1.584   2.419   2.409
   19  UNL   H8  924   1.688   2.583   2.109
   19  UNL   H9  925   1.745   2.514   2.260
   19  UNL  H10  926   1.803   2.302   2.148
   19  UNL  H11  927   1.802   2.280   1.903
   19  UNL  H12  928   1.733   2.442   1.885
   19  UNL  H13  929   1.640   2.310   1.958
   19  UNL  H14  930   1.961   2.488   2.184
   19  UNL  H15  931   1.924   2.557   2.028
   19  UNL  H16  932   2.141   2.438   2.059
   19  UNL  H17  933   1.993   2.319   1.822
   19  UNL  H18  934   2.162   2.367   1.835
   19  UNL  H19  935   2.037   2.490   1.834
   19  UNL  H20  936   1.974   2.184   2.044
   19  UNL  H21  937   2.058   2.242   2.187
   19  UNL  H22  938   2.189   2.151   1.926
   19  UNL  H23  939   2.070   1.975   2.065
   19  UNL  H24  940   2.183   2.010   2.196
   19  UNL  H25  941   2.241   1.945   2.041
   19  UNL  H26  942   2.313   2.238   2.193
   19  UNL  H27  943   2.322   2.324   2.041
   19  UNL  H28  944   2.529   2.238   2.061
   19  UNL  H29  945   2.436   1.955   2.130
   19  UNL  H30  946   2.486   2.078   2.248
   19  UNL  H31  947   2.600   2.019   2.127
   19  UNL  H32  948   2.397   2.028   1.882
   19  UNL  H33  949   2.435   2.195   1.835
   19  UNL  H34  950   2.565   2.083   1.878
   20  UNL   C1  951   1.743   1.461   0.294
   20  UNL   C2  952   1.809   1.377   0.405
   20  UNL   C3  953   1.919   1.461   0.471
   20  UNL   C4  954   1.868   1.246   0.349
   20  UNL   C5  955   1.782   1.119   0.377
   20  UNL   C6  956   1.644   1.129   0.313
   20  UNL   C7  957   1.862   0.995   0.328
   20  UNL   C8  958   1.807   0.853   0.356
   20  UNL   C9  959   1.705   0.807   0.251
   20  UNL  C10  960   1.757   0.836   0.501
   20  UNL  C11  961   1.712   0.693   0.542
   20  UNL  C12  962   1.654   0.701   0.684
   20  UNL  C13  963   1.828   0.592   0.531
   20  UNL  C14  964   1.802   0.443   0.564
   20  UNL  C15  965   1.811   0.411   0.713
   20  UNL  C16  966   1.673   0.390   0.503
   20  UNL   H1  967   1.817   1.491   0.219
   20  UNL   H2  968   1.664   1.405   0.243
   20  UNL   H3  969   1.698   1.551   0.336
   20  UNL   H4  970   1.734   1.355   0.482
   20  UNL   H5  971   1.998   1.486   0.400
   20  UNL   H6  972   1.878   1.554   0.511
   20  UNL   H7  973   1.964   1.406   0.555
   20  UNL   H8  974   1.886   1.255   0.241
   20  UNL   H9  975   1.966   1.229   0.395
   20  UNL  H10  976   1.769   1.112   0.485
   20  UNL  H11  977   1.580   1.045   0.342
   20  UNL  H12  978   1.650   1.131   0.204
   20  UNL  H13  979   1.590   1.218   0.346
   20  UNL  H14  980   1.960   1.000   0.376
   20  UNL  H15  981   1.882   1.005   0.220
   20  UNL  H16  982   1.894   0.788   0.342
   20  UNL  H17  983   1.605   0.848   0.270
   20  UNL  H18  984   1.696   0.698   0.252
   20  UNL  H19  985   1.736   0.836   0.150
   20  UNL  H20  986   1.671   0.903   0.516
   20  UNL  H21  987   1.836   0.870   0.569
   20  UNL  H22  988   1.631   0.662   0.475
   20  UNL  H23  989   1.583   0.784   0.692
   20  UNL  H24  990   1.732   0.716   0.758
   20  UNL  H25  991   1.598   0.610   0.709
   20  UNL  H26  992   1.913   0.627   0.591
   20  UNL  H27  993   1.863   0.593   0.427
   20  UNL  H28  994   1.885   0.388   0.516
   20  UNL  H29  995   1.726   0.449   0.770
   20  UNL  H30  996   1.903   0.452   0.756
   20  UNL  H31  997   1.814   0.302   0.728
   20  UNL  H32  998   1.584   0.433   0.551
   20  UNL  H33  999   1.668   0.411   0.396
   20  UNL  H34 1000   1.667   0.281   0.515
    2.74716     2.74216     2.75246
