; system_GMX.top created by acpype (v: 2023.10.27) on Tue Jul 14 23:43:02 2026

[ defaults ]
; nbfunc        comb-rule       gen-pairs       fudgeLJ fudgeQQ
1               2               yes             0.5     0.8333333333

[ atomtypes ]
;name   bond_type     mass     charge   ptype   sigma         epsilon       Amb
 c3       c3          0.00000  0.00000   A     3.39771e-01   4.51035e-01 ; 1.91  0.1078
 hc       hc          0.00000  0.00000   A     2.60018e-01   8.70272e-02 ; 1.46  0.0208

[ moleculetype ]
;name            nrexcl
 system           3

[ atoms ]
;   nr  type  resi  res  atom  cgnr     charge      mass       ; qtot   bond_type
     1   c3     1   UNL    C1    1    -0.089850     12.01000 ; qtot -0.090
     2   c3     1   UNL    C2    2    -0.065700     12.01000 ; qtot -0.156
     3   c3     1   UNL    C3    3    -0.089850     12.01000 ; qtot -0.245
     4   c3     1   UNL    C4    4    -0.072900     12.01000 ; qtot -0.318
     5   c3     1   UNL    C5    5    -0.065200     12.01000 ; qtot -0.383
     6   c3     1   UNL    C6    6    -0.088600     12.01000 ; qtot -0.472
     7   c3     1   UNL    C7    7    -0.072400     12.01000 ; qtot -0.544
     8   c3     1   UNL    C8    8    -0.061700     12.01000 ; qtot -0.606
     9   c3     1   UNL    C9    9    -0.089099     12.01000 ; qtot -0.695
    10   c3     1   UNL   C10   10    -0.072400     12.01000 ; qtot -0.768
    11   c3     1   UNL   C11   11    -0.065200     12.01000 ; qtot -0.833
    12   c3     1   UNL   C12   12    -0.088600     12.01000 ; qtot -0.921
    13   c3     1   UNL   C13   13    -0.072900     12.01000 ; qtot -0.994
    14   c3     1   UNL   C14   14    -0.065700     12.01000 ; qtot -1.060
    15   c3     1   UNL   C15   15    -0.089850     12.01000 ; qtot -1.150
    16   c3     1   UNL   C16   16    -0.089850     12.01000 ; qtot -1.240
    17   hc     1   UNL    H1   17     0.033033      1.00800 ; qtot -1.207
    18   hc     1   UNL    H2   18     0.033033      1.00800 ; qtot -1.174
    19   hc     1   UNL    H3   19     0.033033      1.00800 ; qtot -1.141
    20   hc     1   UNL    H4   20     0.043700      1.00800 ; qtot -1.097
    21   hc     1   UNL    H5   21     0.033033      1.00800 ; qtot -1.064
    22   hc     1   UNL    H6   22     0.033033      1.00800 ; qtot -1.031
    23   hc     1   UNL    H7   23     0.033033      1.00800 ; qtot -0.998
    24   hc     1   UNL    H8   24     0.038950      1.00800 ; qtot -0.959
    25   hc     1   UNL    H9   25     0.038950      1.00800 ; qtot -0.920
    26   hc     1   UNL   H10   26     0.051200      1.00800 ; qtot -0.869
    27   hc     1   UNL   H11   27     0.032867      1.00800 ; qtot -0.836
    28   hc     1   UNL   H12   28     0.032867      1.00800 ; qtot -0.803
    29   hc     1   UNL   H13   29     0.032867      1.00800 ; qtot -0.770
    30   hc     1   UNL   H14   30     0.039450      1.00800 ; qtot -0.731
    31   hc     1   UNL   H15   31     0.039450      1.00800 ; qtot -0.691
    32   hc     1   UNL   H16   32     0.042700      1.00800 ; qtot -0.649
    33   hc     1   UNL   H17   33     0.033367      1.00800 ; qtot -0.615
    34   hc     1   UNL   H18   34     0.033367      1.00800 ; qtot -0.582
    35   hc     1   UNL   H19   35     0.033367      1.00800 ; qtot -0.548
    36   hc     1   UNL   H20   36     0.039450      1.00800 ; qtot -0.509
    37   hc     1   UNL   H21   37     0.039450      1.00800 ; qtot -0.470
    38   hc     1   UNL   H22   38     0.051200      1.00800 ; qtot -0.418
    39   hc     1   UNL   H23   39     0.032867      1.00800 ; qtot -0.386
    40   hc     1   UNL   H24   40     0.032867      1.00800 ; qtot -0.353
    41   hc     1   UNL   H25   41     0.032867      1.00800 ; qtot -0.320
    42   hc     1   UNL   H26   42     0.038950      1.00800 ; qtot -0.281
    43   hc     1   UNL   H27   43     0.038950      1.00800 ; qtot -0.242
    44   hc     1   UNL   H28   44     0.043700      1.00800 ; qtot -0.198
    45   hc     1   UNL   H29   45     0.033033      1.00800 ; qtot -0.165
    46   hc     1   UNL   H30   46     0.033033      1.00800 ; qtot -0.132
    47   hc     1   UNL   H31   47     0.033033      1.00800 ; qtot -0.099
    48   hc     1   UNL   H32   48     0.033033      1.00800 ; qtot -0.066
    49   hc     1   UNL   H33   49     0.033033      1.00800 ; qtot -0.033
    50   hc     1   UNL   H34   50     0.033033      1.00800 ; qtot -0.000
    51   c3     2   UNL    C1   51    -0.089850     12.01000 ; qtot -0.090
    52   c3     2   UNL    C2   52    -0.065700     12.01000 ; qtot -0.156
    53   c3     2   UNL    C3   53    -0.089850     12.01000 ; qtot -0.245
    54   c3     2   UNL    C4   54    -0.072900     12.01000 ; qtot -0.318
    55   c3     2   UNL    C5   55    -0.065200     12.01000 ; qtot -0.383
    56   c3     2   UNL    C6   56    -0.088600     12.01000 ; qtot -0.472
    57   c3     2   UNL    C7   57    -0.072400     12.01000 ; qtot -0.544
    58   c3     2   UNL    C8   58    -0.061700     12.01000 ; qtot -0.606
    59   c3     2   UNL    C9   59    -0.089099     12.01000 ; qtot -0.695
    60   c3     2   UNL   C10   60    -0.072400     12.01000 ; qtot -0.768
    61   c3     2   UNL   C11   61    -0.065200     12.01000 ; qtot -0.833
    62   c3     2   UNL   C12   62    -0.088600     12.01000 ; qtot -0.921
    63   c3     2   UNL   C13   63    -0.072900     12.01000 ; qtot -0.994
    64   c3     2   UNL   C14   64    -0.065700     12.01000 ; qtot -1.060
    65   c3     2   UNL   C15   65    -0.089850     12.01000 ; qtot -1.150
    66   c3     2   UNL   C16   66    -0.089850     12.01000 ; qtot -1.240
    67   hc     2   UNL    H1   67     0.033033      1.00800 ; qtot -1.207
    68   hc     2   UNL    H2   68     0.033033      1.00800 ; qtot -1.174
    69   hc     2   UNL    H3   69     0.033033      1.00800 ; qtot -1.141
    70   hc     2   UNL    H4   70     0.043700      1.00800 ; qtot -1.097
    71   hc     2   UNL    H5   71     0.033033      1.00800 ; qtot -1.064
    72   hc     2   UNL    H6   72     0.033033      1.00800 ; qtot -1.031
    73   hc     2   UNL    H7   73     0.033033      1.00800 ; qtot -0.998
    74   hc     2   UNL    H8   74     0.038950      1.00800 ; qtot -0.959
    75   hc     2   UNL    H9   75     0.038950      1.00800 ; qtot -0.920
    76   hc     2   UNL   H10   76     0.051200      1.00800 ; qtot -0.869
    77   hc     2   UNL   H11   77     0.032867      1.00800 ; qtot -0.836
    78   hc     2   UNL   H12   78     0.032867      1.00800 ; qtot -0.803
    79   hc     2   UNL   H13   79     0.032867      1.00800 ; qtot -0.770
    80   hc     2   UNL   H14   80     0.039450      1.00800 ; qtot -0.731
    81   hc     2   UNL   H15   81     0.039450      1.00800 ; qtot -0.691
    82   hc     2   UNL   H16   82     0.042700      1.00800 ; qtot -0.649
    83   hc     2   UNL   H17   83     0.033367      1.00800 ; qtot -0.615
    84   hc     2   UNL   H18   84     0.033367      1.00800 ; qtot -0.582
    85   hc     2   UNL   H19   85     0.033367      1.00800 ; qtot -0.548
    86   hc     2   UNL   H20   86     0.039450      1.00800 ; qtot -0.509
    87   hc     2   UNL   H21   87     0.039450      1.00800 ; qtot -0.470
    88   hc     2   UNL   H22   88     0.051200      1.00800 ; qtot -0.418
    89   hc     2   UNL   H23   89     0.032867      1.00800 ; qtot -0.386
    90   hc     2   UNL   H24   90     0.032867      1.00800 ; qtot -0.353
    91   hc     2   UNL   H25   91     0.032867      1.00800 ; qtot -0.320
    92   hc     2   UNL   H26   92     0.038950      1.00800 ; qtot -0.281
    93   hc     2   UNL   H27   93     0.038950      1.00800 ; qtot -0.242
    94   hc     2   UNL   H28   94     0.043700      1.00800 ; qtot -0.198
    95   hc     2   UNL   H29   95     0.033033      1.00800 ; qtot -0.165
    96   hc     2   UNL   H30   96     0.033033      1.00800 ; qtot -0.132
    97   hc     2   UNL   H31   97     0.033033      1.00800 ; qtot -0.099
    98   hc     2   UNL   H32   98     0.033033      1.00800 ; qtot -0.066
    99   hc     2   UNL   H33   99     0.033033      1.00800 ; qtot -0.033
   100   hc     2   UNL   H34  100     0.033033      1.00800 ; qtot -0.000
   101   c3     3   UNL    C1  101    -0.089850     12.01000 ; qtot -0.090
   102   c3     3   UNL    C2  102    -0.065700     12.01000 ; qtot -0.156
   103   c3     3   UNL    C3  103    -0.089850     12.01000 ; qtot -0.245
   104   c3     3   UNL    C4  104    -0.072900     12.01000 ; qtot -0.318
   105   c3     3   UNL    C5  105    -0.065200     12.01000 ; qtot -0.383
   106   c3     3   UNL    C6  106    -0.088600     12.01000 ; qtot -0.472
   107   c3     3   UNL    C7  107    -0.072400     12.01000 ; qtot -0.544
   108   c3     3   UNL    C8  108    -0.061700     12.01000 ; qtot -0.606
   109   c3     3   UNL    C9  109    -0.089099     12.01000 ; qtot -0.695
   110   c3     3   UNL   C10  110    -0.072400     12.01000 ; qtot -0.768
   111   c3     3   UNL   C11  111    -0.065200     12.01000 ; qtot -0.833
   112   c3     3   UNL   C12  112    -0.088600     12.01000 ; qtot -0.921
   113   c3     3   UNL   C13  113    -0.072900     12.01000 ; qtot -0.994
   114   c3     3   UNL   C14  114    -0.065700     12.01000 ; qtot -1.060
   115   c3     3   UNL   C15  115    -0.089850     12.01000 ; qtot -1.150
   116   c3     3   UNL   C16  116    -0.089850     12.01000 ; qtot -1.240
   117   hc     3   UNL    H1  117     0.033033      1.00800 ; qtot -1.207
   118   hc     3   UNL    H2  118     0.033033      1.00800 ; qtot -1.174
   119   hc     3   UNL    H3  119     0.033033      1.00800 ; qtot -1.141
   120   hc     3   UNL    H4  120     0.043700      1.00800 ; qtot -1.097
   121   hc     3   UNL    H5  121     0.033033      1.00800 ; qtot -1.064
   122   hc     3   UNL    H6  122     0.033033      1.00800 ; qtot -1.031
   123   hc     3   UNL    H7  123     0.033033      1.00800 ; qtot -0.998
   124   hc     3   UNL    H8  124     0.038950      1.00800 ; qtot -0.959
   125   hc     3   UNL    H9  125     0.038950      1.00800 ; qtot -0.920
   126   hc     3   UNL   H10  126     0.051200      1.00800 ; qtot -0.869
   127   hc     3   UNL   H11  127     0.032867      1.00800 ; qtot -0.836
   128   hc     3   UNL   H12  128     0.032867      1.00800 ; qtot -0.803
   129   hc     3   UNL   H13  129     0.032867      1.00800 ; qtot -0.770
   130   hc     3   UNL   H14  130     0.039450      1.00800 ; qtot -0.731
   131   hc     3   UNL   H15  131     0.039450      1.00800 ; qtot -0.691
   132   hc     3   UNL   H16  132     0.042700      1.00800 ; qtot -0.649
   133   hc     3   UNL   H17  133     0.033367      1.00800 ; qtot -0.615
   134   hc     3   UNL   H18  134     0.033367      1.00800 ; qtot -0.582
   135   hc     3   UNL   H19  135     0.033367      1.00800 ; qtot -0.548
   136   hc     3   UNL   H20  136     0.039450      1.00800 ; qtot -0.509
   137   hc     3   UNL   H21  137     0.039450      1.00800 ; qtot -0.470
   138   hc     3   UNL   H22  138     0.051200      1.00800 ; qtot -0.418
   139   hc     3   UNL   H23  139     0.032867      1.00800 ; qtot -0.386
   140   hc     3   UNL   H24  140     0.032867      1.00800 ; qtot -0.353
   141   hc     3   UNL   H25  141     0.032867      1.00800 ; qtot -0.320
   142   hc     3   UNL   H26  142     0.038950      1.00800 ; qtot -0.281
   143   hc     3   UNL   H27  143     0.038950      1.00800 ; qtot -0.242
   144   hc     3   UNL   H28  144     0.043700      1.00800 ; qtot -0.198
   145   hc     3   UNL   H29  145     0.033033      1.00800 ; qtot -0.165
   146   hc     3   UNL   H30  146     0.033033      1.00800 ; qtot -0.132
   147   hc     3   UNL   H31  147     0.033033      1.00800 ; qtot -0.099
   148   hc     3   UNL   H32  148     0.033033      1.00800 ; qtot -0.066
   149   hc     3   UNL   H33  149     0.033033      1.00800 ; qtot -0.033
   150   hc     3   UNL   H34  150     0.033033      1.00800 ; qtot -0.000
   151   c3     4   UNL    C1  151    -0.089850     12.01000 ; qtot -0.090
   152   c3     4   UNL    C2  152    -0.065700     12.01000 ; qtot -0.156
   153   c3     4   UNL    C3  153    -0.089850     12.01000 ; qtot -0.245
   154   c3     4   UNL    C4  154    -0.072900     12.01000 ; qtot -0.318
   155   c3     4   UNL    C5  155    -0.065200     12.01000 ; qtot -0.383
   156   c3     4   UNL    C6  156    -0.088600     12.01000 ; qtot -0.472
   157   c3     4   UNL    C7  157    -0.072400     12.01000 ; qtot -0.544
   158   c3     4   UNL    C8  158    -0.061700     12.01000 ; qtot -0.606
   159   c3     4   UNL    C9  159    -0.089099     12.01000 ; qtot -0.695
   160   c3     4   UNL   C10  160    -0.072400     12.01000 ; qtot -0.768
   161   c3     4   UNL   C11  161    -0.065200     12.01000 ; qtot -0.833
   162   c3     4   UNL   C12  162    -0.088600     12.01000 ; qtot -0.921
   163   c3     4   UNL   C13  163    -0.072900     12.01000 ; qtot -0.994
   164   c3     4   UNL   C14  164    -0.065700     12.01000 ; qtot -1.060
   165   c3     4   UNL   C15  165    -0.089850     12.01000 ; qtot -1.150
   166   c3     4   UNL   C16  166    -0.089850     12.01000 ; qtot -1.240
   167   hc     4   UNL    H1  167     0.033033      1.00800 ; qtot -1.207
   168   hc     4   UNL    H2  168     0.033033      1.00800 ; qtot -1.174
   169   hc     4   UNL    H3  169     0.033033      1.00800 ; qtot -1.141
   170   hc     4   UNL    H4  170     0.043700      1.00800 ; qtot -1.097
   171   hc     4   UNL    H5  171     0.033033      1.00800 ; qtot -1.064
   172   hc     4   UNL    H6  172     0.033033      1.00800 ; qtot -1.031
   173   hc     4   UNL    H7  173     0.033033      1.00800 ; qtot -0.998
   174   hc     4   UNL    H8  174     0.038950      1.00800 ; qtot -0.959
   175   hc     4   UNL    H9  175     0.038950      1.00800 ; qtot -0.920
   176   hc     4   UNL   H10  176     0.051200      1.00800 ; qtot -0.869
   177   hc     4   UNL   H11  177     0.032867      1.00800 ; qtot -0.836
   178   hc     4   UNL   H12  178     0.032867      1.00800 ; qtot -0.803
   179   hc     4   UNL   H13  179     0.032867      1.00800 ; qtot -0.770
   180   hc     4   UNL   H14  180     0.039450      1.00800 ; qtot -0.731
   181   hc     4   UNL   H15  181     0.039450      1.00800 ; qtot -0.691
   182   hc     4   UNL   H16  182     0.042700      1.00800 ; qtot -0.649
   183   hc     4   UNL   H17  183     0.033367      1.00800 ; qtot -0.615
   184   hc     4   UNL   H18  184     0.033367      1.00800 ; qtot -0.582
   185   hc     4   UNL   H19  185     0.033367      1.00800 ; qtot -0.548
   186   hc     4   UNL   H20  186     0.039450      1.00800 ; qtot -0.509
   187   hc     4   UNL   H21  187     0.039450      1.00800 ; qtot -0.470
   188   hc     4   UNL   H22  188     0.051200      1.00800 ; qtot -0.418
   189   hc     4   UNL   H23  189     0.032867      1.00800 ; qtot -0.386
   190   hc     4   UNL   H24  190     0.032867      1.00800 ; qtot -0.353
   191   hc     4   UNL   H25  191     0.032867      1.00800 ; qtot -0.320
   192   hc     4   UNL   H26  192     0.038950      1.00800 ; qtot -0.281
   193   hc     4   UNL   H27  193     0.038950      1.00800 ; qtot -0.242
   194   hc     4   UNL   H28  194     0.043700      1.00800 ; qtot -0.198
   195   hc     4   UNL   H29  195     0.033033      1.00800 ; qtot -0.165
   196   hc     4   UNL   H30  196     0.033033      1.00800 ; qtot -0.132
   197   hc     4   UNL   H31  197     0.033033      1.00800 ; qtot -0.099
   198   hc     4   UNL   H32  198     0.033033      1.00800 ; qtot -0.066
   199   hc     4   UNL   H33  199     0.033033      1.00800 ; qtot -0.033
   200   hc     4   UNL   H34  200     0.033033      1.00800 ; qtot -0.000
   201   c3     5   UNL    C1  201    -0.089850     12.01000 ; qtot -0.090
   202   c3     5   UNL    C2  202    -0.065700     12.01000 ; qtot -0.156
   203   c3     5   UNL    C3  203    -0.089850     12.01000 ; qtot -0.245
   204   c3     5   UNL    C4  204    -0.072900     12.01000 ; qtot -0.318
   205   c3     5   UNL    C5  205    -0.065200     12.01000 ; qtot -0.383
   206   c3     5   UNL    C6  206    -0.088600     12.01000 ; qtot -0.472
   207   c3     5   UNL    C7  207    -0.072400     12.01000 ; qtot -0.544
   208   c3     5   UNL    C8  208    -0.061700     12.01000 ; qtot -0.606
   209   c3     5   UNL    C9  209    -0.089099     12.01000 ; qtot -0.695
   210   c3     5   UNL   C10  210    -0.072400     12.01000 ; qtot -0.768
   211   c3     5   UNL   C11  211    -0.065200     12.01000 ; qtot -0.833
   212   c3     5   UNL   C12  212    -0.088600     12.01000 ; qtot -0.921
   213   c3     5   UNL   C13  213    -0.072900     12.01000 ; qtot -0.994
   214   c3     5   UNL   C14  214    -0.065700     12.01000 ; qtot -1.060
   215   c3     5   UNL   C15  215    -0.089850     12.01000 ; qtot -1.150
   216   c3     5   UNL   C16  216    -0.089850     12.01000 ; qtot -1.240
   217   hc     5   UNL    H1  217     0.033033      1.00800 ; qtot -1.207
   218   hc     5   UNL    H2  218     0.033033      1.00800 ; qtot -1.174
   219   hc     5   UNL    H3  219     0.033033      1.00800 ; qtot -1.141
   220   hc     5   UNL    H4  220     0.043700      1.00800 ; qtot -1.097
   221   hc     5   UNL    H5  221     0.033033      1.00800 ; qtot -1.064
   222   hc     5   UNL    H6  222     0.033033      1.00800 ; qtot -1.031
   223   hc     5   UNL    H7  223     0.033033      1.00800 ; qtot -0.998
   224   hc     5   UNL    H8  224     0.038950      1.00800 ; qtot -0.959
   225   hc     5   UNL    H9  225     0.038950      1.00800 ; qtot -0.920
   226   hc     5   UNL   H10  226     0.051200      1.00800 ; qtot -0.869
   227   hc     5   UNL   H11  227     0.032867      1.00800 ; qtot -0.836
   228   hc     5   UNL   H12  228     0.032867      1.00800 ; qtot -0.803
   229   hc     5   UNL   H13  229     0.032867      1.00800 ; qtot -0.770
   230   hc     5   UNL   H14  230     0.039450      1.00800 ; qtot -0.731
   231   hc     5   UNL   H15  231     0.039450      1.00800 ; qtot -0.691
   232   hc     5   UNL   H16  232     0.042700      1.00800 ; qtot -0.649
   233   hc     5   UNL   H17  233     0.033367      1.00800 ; qtot -0.615
   234   hc     5   UNL   H18  234     0.033367      1.00800 ; qtot -0.582
   235   hc     5   UNL   H19  235     0.033367      1.00800 ; qtot -0.548
   236   hc     5   UNL   H20  236     0.039450      1.00800 ; qtot -0.509
   237   hc     5   UNL   H21  237     0.039450      1.00800 ; qtot -0.470
   238   hc     5   UNL   H22  238     0.051200      1.00800 ; qtot -0.418
   239   hc     5   UNL   H23  239     0.032867      1.00800 ; qtot -0.386
   240   hc     5   UNL   H24  240     0.032867      1.00800 ; qtot -0.353
   241   hc     5   UNL   H25  241     0.032867      1.00800 ; qtot -0.320
   242   hc     5   UNL   H26  242     0.038950      1.00800 ; qtot -0.281
   243   hc     5   UNL   H27  243     0.038950      1.00800 ; qtot -0.242
   244   hc     5   UNL   H28  244     0.043700      1.00800 ; qtot -0.198
   245   hc     5   UNL   H29  245     0.033033      1.00800 ; qtot -0.165
   246   hc     5   UNL   H30  246     0.033033      1.00800 ; qtot -0.132
   247   hc     5   UNL   H31  247     0.033033      1.00800 ; qtot -0.099
   248   hc     5   UNL   H32  248     0.033033      1.00800 ; qtot -0.066
   249   hc     5   UNL   H33  249     0.033033      1.00800 ; qtot -0.033
   250   hc     5   UNL   H34  250     0.033033      1.00800 ; qtot -0.000
   251   c3     6   UNL    C1  251    -0.089850     12.01000 ; qtot -0.090
   252   c3     6   UNL    C2  252    -0.065700     12.01000 ; qtot -0.156
   253   c3     6   UNL    C3  253    -0.089850     12.01000 ; qtot -0.245
   254   c3     6   UNL    C4  254    -0.072900     12.01000 ; qtot -0.318
   255   c3     6   UNL    C5  255    -0.065200     12.01000 ; qtot -0.383
   256   c3     6   UNL    C6  256    -0.088600     12.01000 ; qtot -0.472
   257   c3     6   UNL    C7  257    -0.072400     12.01000 ; qtot -0.544
   258   c3     6   UNL    C8  258    -0.061700     12.01000 ; qtot -0.606
   259   c3     6   UNL    C9  259    -0.089099     12.01000 ; qtot -0.695
   260   c3     6   UNL   C10  260    -0.072400     12.01000 ; qtot -0.768
   261   c3     6   UNL   C11  261    -0.065200     12.01000 ; qtot -0.833
   262   c3     6   UNL   C12  262    -0.088600     12.01000 ; qtot -0.921
   263   c3     6   UNL   C13  263    -0.072900     12.01000 ; qtot -0.994
   264   c3     6   UNL   C14  264    -0.065700     12.01000 ; qtot -1.060
   265   c3     6   UNL   C15  265    -0.089850     12.01000 ; qtot -1.150
   266   c3     6   UNL   C16  266    -0.089850     12.01000 ; qtot -1.240
   267   hc     6   UNL    H1  267     0.033033      1.00800 ; qtot -1.207
   268   hc     6   UNL    H2  268     0.033033      1.00800 ; qtot -1.174
   269   hc     6   UNL    H3  269     0.033033      1.00800 ; qtot -1.141
   270   hc     6   UNL    H4  270     0.043700      1.00800 ; qtot -1.097
   271   hc     6   UNL    H5  271     0.033033      1.00800 ; qtot -1.064
   272   hc     6   UNL    H6  272     0.033033      1.00800 ; qtot -1.031
   273   hc     6   UNL    H7  273     0.033033      1.00800 ; qtot -0.998
   274   hc     6   UNL    H8  274     0.038950      1.00800 ; qtot -0.959
   275   hc     6   UNL    H9  275     0.038950      1.00800 ; qtot -0.920
   276   hc     6   UNL   H10  276     0.051200      1.00800 ; qtot -0.869
   277   hc     6   UNL   H11  277     0.032867      1.00800 ; qtot -0.836
   278   hc     6   UNL   H12  278     0.032867      1.00800 ; qtot -0.803
   279   hc     6   UNL   H13  279     0.032867      1.00800 ; qtot -0.770
   280   hc     6   UNL   H14  280     0.039450      1.00800 ; qtot -0.731
   281   hc     6   UNL   H15  281     0.039450      1.00800 ; qtot -0.691
   282   hc     6   UNL   H16  282     0.042700      1.00800 ; qtot -0.649
   283   hc     6   UNL   H17  283     0.033367      1.00800 ; qtot -0.615
   284   hc     6   UNL   H18  284     0.033367      1.00800 ; qtot -0.582
   285   hc     6   UNL   H19  285     0.033367      1.00800 ; qtot -0.548
   286   hc     6   UNL   H20  286     0.039450      1.00800 ; qtot -0.509
   287   hc     6   UNL   H21  287     0.039450      1.00800 ; qtot -0.470
   288   hc     6   UNL   H22  288     0.051200      1.00800 ; qtot -0.418
   289   hc     6   UNL   H23  289     0.032867      1.00800 ; qtot -0.386
   290   hc     6   UNL   H24  290     0.032867      1.00800 ; qtot -0.353
   291   hc     6   UNL   H25  291     0.032867      1.00800 ; qtot -0.320
   292   hc     6   UNL   H26  292     0.038950      1.00800 ; qtot -0.281
   293   hc     6   UNL   H27  293     0.038950      1.00800 ; qtot -0.242
   294   hc     6   UNL   H28  294     0.043700      1.00800 ; qtot -0.198
   295   hc     6   UNL   H29  295     0.033033      1.00800 ; qtot -0.165
   296   hc     6   UNL   H30  296     0.033033      1.00800 ; qtot -0.132
   297   hc     6   UNL   H31  297     0.033033      1.00800 ; qtot -0.099
   298   hc     6   UNL   H32  298     0.033033      1.00800 ; qtot -0.066
   299   hc     6   UNL   H33  299     0.033033      1.00800 ; qtot -0.033
   300   hc     6   UNL   H34  300     0.033033      1.00800 ; qtot -0.000
   301   c3     7   UNL    C1  301    -0.089850     12.01000 ; qtot -0.090
   302   c3     7   UNL    C2  302    -0.065700     12.01000 ; qtot -0.156
   303   c3     7   UNL    C3  303    -0.089850     12.01000 ; qtot -0.245
   304   c3     7   UNL    C4  304    -0.072900     12.01000 ; qtot -0.318
   305   c3     7   UNL    C5  305    -0.065200     12.01000 ; qtot -0.383
   306   c3     7   UNL    C6  306    -0.088600     12.01000 ; qtot -0.472
   307   c3     7   UNL    C7  307    -0.072400     12.01000 ; qtot -0.544
   308   c3     7   UNL    C8  308    -0.061700     12.01000 ; qtot -0.606
   309   c3     7   UNL    C9  309    -0.089099     12.01000 ; qtot -0.695
   310   c3     7   UNL   C10  310    -0.072400     12.01000 ; qtot -0.768
   311   c3     7   UNL   C11  311    -0.065200     12.01000 ; qtot -0.833
   312   c3     7   UNL   C12  312    -0.088600     12.01000 ; qtot -0.921
   313   c3     7   UNL   C13  313    -0.072900     12.01000 ; qtot -0.994
   314   c3     7   UNL   C14  314    -0.065700     12.01000 ; qtot -1.060
   315   c3     7   UNL   C15  315    -0.089850     12.01000 ; qtot -1.150
   316   c3     7   UNL   C16  316    -0.089850     12.01000 ; qtot -1.240
   317   hc     7   UNL    H1  317     0.033033      1.00800 ; qtot -1.207
   318   hc     7   UNL    H2  318     0.033033      1.00800 ; qtot -1.174
   319   hc     7   UNL    H3  319     0.033033      1.00800 ; qtot -1.141
   320   hc     7   UNL    H4  320     0.043700      1.00800 ; qtot -1.097
   321   hc     7   UNL    H5  321     0.033033      1.00800 ; qtot -1.064
   322   hc     7   UNL    H6  322     0.033033      1.00800 ; qtot -1.031
   323   hc     7   UNL    H7  323     0.033033      1.00800 ; qtot -0.998
   324   hc     7   UNL    H8  324     0.038950      1.00800 ; qtot -0.959
   325   hc     7   UNL    H9  325     0.038950      1.00800 ; qtot -0.920
   326   hc     7   UNL   H10  326     0.051200      1.00800 ; qtot -0.869
   327   hc     7   UNL   H11  327     0.032867      1.00800 ; qtot -0.836
   328   hc     7   UNL   H12  328     0.032867      1.00800 ; qtot -0.803
   329   hc     7   UNL   H13  329     0.032867      1.00800 ; qtot -0.770
   330   hc     7   UNL   H14  330     0.039450      1.00800 ; qtot -0.731
   331   hc     7   UNL   H15  331     0.039450      1.00800 ; qtot -0.691
   332   hc     7   UNL   H16  332     0.042700      1.00800 ; qtot -0.649
   333   hc     7   UNL   H17  333     0.033367      1.00800 ; qtot -0.615
   334   hc     7   UNL   H18  334     0.033367      1.00800 ; qtot -0.582
   335   hc     7   UNL   H19  335     0.033367      1.00800 ; qtot -0.548
   336   hc     7   UNL   H20  336     0.039450      1.00800 ; qtot -0.509
   337   hc     7   UNL   H21  337     0.039450      1.00800 ; qtot -0.470
   338   hc     7   UNL   H22  338     0.051200      1.00800 ; qtot -0.418
   339   hc     7   UNL   H23  339     0.032867      1.00800 ; qtot -0.386
   340   hc     7   UNL   H24  340     0.032867      1.00800 ; qtot -0.353
   341   hc     7   UNL   H25  341     0.032867      1.00800 ; qtot -0.320
   342   hc     7   UNL   H26  342     0.038950      1.00800 ; qtot -0.281
   343   hc     7   UNL   H27  343     0.038950      1.00800 ; qtot -0.242
   344   hc     7   UNL   H28  344     0.043700      1.00800 ; qtot -0.198
   345   hc     7   UNL   H29  345     0.033033      1.00800 ; qtot -0.165
   346   hc     7   UNL   H30  346     0.033033      1.00800 ; qtot -0.132
   347   hc     7   UNL   H31  347     0.033033      1.00800 ; qtot -0.099
   348   hc     7   UNL   H32  348     0.033033      1.00800 ; qtot -0.066
   349   hc     7   UNL   H33  349     0.033033      1.00800 ; qtot -0.033
   350   hc     7   UNL   H34  350     0.033033      1.00800 ; qtot -0.000
   351   c3     8   UNL    C1  351    -0.089850     12.01000 ; qtot -0.090
   352   c3     8   UNL    C2  352    -0.065700     12.01000 ; qtot -0.156
   353   c3     8   UNL    C3  353    -0.089850     12.01000 ; qtot -0.245
   354   c3     8   UNL    C4  354    -0.072900     12.01000 ; qtot -0.318
   355   c3     8   UNL    C5  355    -0.065200     12.01000 ; qtot -0.383
   356   c3     8   UNL    C6  356    -0.088600     12.01000 ; qtot -0.472
   357   c3     8   UNL    C7  357    -0.072400     12.01000 ; qtot -0.544
   358   c3     8   UNL    C8  358    -0.061700     12.01000 ; qtot -0.606
   359   c3     8   UNL    C9  359    -0.089099     12.01000 ; qtot -0.695
   360   c3     8   UNL   C10  360    -0.072400     12.01000 ; qtot -0.768
   361   c3     8   UNL   C11  361    -0.065200     12.01000 ; qtot -0.833
   362   c3     8   UNL   C12  362    -0.088600     12.01000 ; qtot -0.921
   363   c3     8   UNL   C13  363    -0.072900     12.01000 ; qtot -0.994
   364   c3     8   UNL   C14  364    -0.065700     12.01000 ; qtot -1.060
   365   c3     8   UNL   C15  365    -0.089850     12.01000 ; qtot -1.150
   366   c3     8   UNL   C16  366    -0.089850     12.01000 ; qtot -1.240
   367   hc     8   UNL    H1  367     0.033033      1.00800 ; qtot -1.207
   368   hc     8   UNL    H2  368     0.033033      1.00800 ; qtot -1.174
   369   hc     8   UNL    H3  369     0.033033      1.00800 ; qtot -1.141
   370   hc     8   UNL    H4  370     0.043700      1.00800 ; qtot -1.097
   371   hc     8   UNL    H5  371     0.033033      1.00800 ; qtot -1.064
   372   hc     8   UNL    H6  372     0.033033      1.00800 ; qtot -1.031
   373   hc     8   UNL    H7  373     0.033033      1.00800 ; qtot -0.998
   374   hc     8   UNL    H8  374     0.038950      1.00800 ; qtot -0.959
   375   hc     8   UNL    H9  375     0.038950      1.00800 ; qtot -0.920
   376   hc     8   UNL   H10  376     0.051200      1.00800 ; qtot -0.869
   377   hc     8   UNL   H11  377     0.032867      1.00800 ; qtot -0.836
   378   hc     8   UNL   H12  378     0.032867      1.00800 ; qtot -0.803
   379   hc     8   UNL   H13  379     0.032867      1.00800 ; qtot -0.770
   380   hc     8   UNL   H14  380     0.039450      1.00800 ; qtot -0.731
   381   hc     8   UNL   H15  381     0.039450      1.00800 ; qtot -0.691
   382   hc     8   UNL   H16  382     0.042700      1.00800 ; qtot -0.649
   383   hc     8   UNL   H17  383     0.033367      1.00800 ; qtot -0.615
   384   hc     8   UNL   H18  384     0.033367      1.00800 ; qtot -0.582
   385   hc     8   UNL   H19  385     0.033367      1.00800 ; qtot -0.548
   386   hc     8   UNL   H20  386     0.039450      1.00800 ; qtot -0.509
   387   hc     8   UNL   H21  387     0.039450      1.00800 ; qtot -0.470
   388   hc     8   UNL   H22  388     0.051200      1.00800 ; qtot -0.418
   389   hc     8   UNL   H23  389     0.032867      1.00800 ; qtot -0.386
   390   hc     8   UNL   H24  390     0.032867      1.00800 ; qtot -0.353
   391   hc     8   UNL   H25  391     0.032867      1.00800 ; qtot -0.320
   392   hc     8   UNL   H26  392     0.038950      1.00800 ; qtot -0.281
   393   hc     8   UNL   H27  393     0.038950      1.00800 ; qtot -0.242
   394   hc     8   UNL   H28  394     0.043700      1.00800 ; qtot -0.198
   395   hc     8   UNL   H29  395     0.033033      1.00800 ; qtot -0.165
   396   hc     8   UNL   H30  396     0.033033      1.00800 ; qtot -0.132
   397   hc     8   UNL   H31  397     0.033033      1.00800 ; qtot -0.099
   398   hc     8   UNL   H32  398     0.033033      1.00800 ; qtot -0.066
   399   hc     8   UNL   H33  399     0.033033      1.00800 ; qtot -0.033
   400   hc     8   UNL   H34  400     0.033033      1.00800 ; qtot -0.000
   401   c3     9   UNL    C1  401    -0.089850     12.01000 ; qtot -0.090
   402   c3     9   UNL    C2  402    -0.065700     12.01000 ; qtot -0.156
   403   c3     9   UNL    C3  403    -0.089850     12.01000 ; qtot -0.245
   404   c3     9   UNL    C4  404    -0.072900     12.01000 ; qtot -0.318
   405   c3     9   UNL    C5  405    -0.065200     12.01000 ; qtot -0.383
   406   c3     9   UNL    C6  406    -0.088600     12.01000 ; qtot -0.472
   407   c3     9   UNL    C7  407    -0.072400     12.01000 ; qtot -0.544
   408   c3     9   UNL    C8  408    -0.061700     12.01000 ; qtot -0.606
   409   c3     9   UNL    C9  409    -0.089099     12.01000 ; qtot -0.695
   410   c3     9   UNL   C10  410    -0.072400     12.01000 ; qtot -0.768
   411   c3     9   UNL   C11  411    -0.065200     12.01000 ; qtot -0.833
   412   c3     9   UNL   C12  412    -0.088600     12.01000 ; qtot -0.921
   413   c3     9   UNL   C13  413    -0.072900     12.01000 ; qtot -0.994
   414   c3     9   UNL   C14  414    -0.065700     12.01000 ; qtot -1.060
   415   c3     9   UNL   C15  415    -0.089850     12.01000 ; qtot -1.150
   416   c3     9   UNL   C16  416    -0.089850     12.01000 ; qtot -1.240
   417   hc     9   UNL    H1  417     0.033033      1.00800 ; qtot -1.207
   418   hc     9   UNL    H2  418     0.033033      1.00800 ; qtot -1.174
   419   hc     9   UNL    H3  419     0.033033      1.00800 ; qtot -1.141
   420   hc     9   UNL    H4  420     0.043700      1.00800 ; qtot -1.097
   421   hc     9   UNL    H5  421     0.033033      1.00800 ; qtot -1.064
   422   hc     9   UNL    H6  422     0.033033      1.00800 ; qtot -1.031
   423   hc     9   UNL    H7  423     0.033033      1.00800 ; qtot -0.998
   424   hc     9   UNL    H8  424     0.038950      1.00800 ; qtot -0.959
   425   hc     9   UNL    H9  425     0.038950      1.00800 ; qtot -0.920
   426   hc     9   UNL   H10  426     0.051200      1.00800 ; qtot -0.869
   427   hc     9   UNL   H11  427     0.032867      1.00800 ; qtot -0.836
   428   hc     9   UNL   H12  428     0.032867      1.00800 ; qtot -0.803
   429   hc     9   UNL   H13  429     0.032867      1.00800 ; qtot -0.770
   430   hc     9   UNL   H14  430     0.039450      1.00800 ; qtot -0.731
   431   hc     9   UNL   H15  431     0.039450      1.00800 ; qtot -0.691
   432   hc     9   UNL   H16  432     0.042700      1.00800 ; qtot -0.649
   433   hc     9   UNL   H17  433     0.033367      1.00800 ; qtot -0.615
   434   hc     9   UNL   H18  434     0.033367      1.00800 ; qtot -0.582
   435   hc     9   UNL   H19  435     0.033367      1.00800 ; qtot -0.548
   436   hc     9   UNL   H20  436     0.039450      1.00800 ; qtot -0.509
   437   hc     9   UNL   H21  437     0.039450      1.00800 ; qtot -0.470
   438   hc     9   UNL   H22  438     0.051200      1.00800 ; qtot -0.418
   439   hc     9   UNL   H23  439     0.032867      1.00800 ; qtot -0.386
   440   hc     9   UNL   H24  440     0.032867      1.00800 ; qtot -0.353
   441   hc     9   UNL   H25  441     0.032867      1.00800 ; qtot -0.320
   442   hc     9   UNL   H26  442     0.038950      1.00800 ; qtot -0.281
   443   hc     9   UNL   H27  443     0.038950      1.00800 ; qtot -0.242
   444   hc     9   UNL   H28  444     0.043700      1.00800 ; qtot -0.198
   445   hc     9   UNL   H29  445     0.033033      1.00800 ; qtot -0.165
   446   hc     9   UNL   H30  446     0.033033      1.00800 ; qtot -0.132
   447   hc     9   UNL   H31  447     0.033033      1.00800 ; qtot -0.099
   448   hc     9   UNL   H32  448     0.033033      1.00800 ; qtot -0.066
   449   hc     9   UNL   H33  449     0.033033      1.00800 ; qtot -0.033
   450   hc     9   UNL   H34  450     0.033033      1.00800 ; qtot -0.000
   451   c3    10   UNL    C1  451    -0.089850     12.01000 ; qtot -0.090
   452   c3    10   UNL    C2  452    -0.065700     12.01000 ; qtot -0.156
   453   c3    10   UNL    C3  453    -0.089850     12.01000 ; qtot -0.245
   454   c3    10   UNL    C4  454    -0.072900     12.01000 ; qtot -0.318
   455   c3    10   UNL    C5  455    -0.065200     12.01000 ; qtot -0.383
   456   c3    10   UNL    C6  456    -0.088600     12.01000 ; qtot -0.472
   457   c3    10   UNL    C7  457    -0.072400     12.01000 ; qtot -0.544
   458   c3    10   UNL    C8  458    -0.061700     12.01000 ; qtot -0.606
   459   c3    10   UNL    C9  459    -0.089099     12.01000 ; qtot -0.695
   460   c3    10   UNL   C10  460    -0.072400     12.01000 ; qtot -0.768
   461   c3    10   UNL   C11  461    -0.065200     12.01000 ; qtot -0.833
   462   c3    10   UNL   C12  462    -0.088600     12.01000 ; qtot -0.921
   463   c3    10   UNL   C13  463    -0.072900     12.01000 ; qtot -0.994
   464   c3    10   UNL   C14  464    -0.065700     12.01000 ; qtot -1.060
   465   c3    10   UNL   C15  465    -0.089850     12.01000 ; qtot -1.150
   466   c3    10   UNL   C16  466    -0.089850     12.01000 ; qtot -1.240
   467   hc    10   UNL    H1  467     0.033033      1.00800 ; qtot -1.207
   468   hc    10   UNL    H2  468     0.033033      1.00800 ; qtot -1.174
   469   hc    10   UNL    H3  469     0.033033      1.00800 ; qtot -1.141
   470   hc    10   UNL    H4  470     0.043700      1.00800 ; qtot -1.097
   471   hc    10   UNL    H5  471     0.033033      1.00800 ; qtot -1.064
   472   hc    10   UNL    H6  472     0.033033      1.00800 ; qtot -1.031
   473   hc    10   UNL    H7  473     0.033033      1.00800 ; qtot -0.998
   474   hc    10   UNL    H8  474     0.038950      1.00800 ; qtot -0.959
   475   hc    10   UNL    H9  475     0.038950      1.00800 ; qtot -0.920
   476   hc    10   UNL   H10  476     0.051200      1.00800 ; qtot -0.869
   477   hc    10   UNL   H11  477     0.032867      1.00800 ; qtot -0.836
   478   hc    10   UNL   H12  478     0.032867      1.00800 ; qtot -0.803
   479   hc    10   UNL   H13  479     0.032867      1.00800 ; qtot -0.770
   480   hc    10   UNL   H14  480     0.039450      1.00800 ; qtot -0.731
   481   hc    10   UNL   H15  481     0.039450      1.00800 ; qtot -0.691
   482   hc    10   UNL   H16  482     0.042700      1.00800 ; qtot -0.649
   483   hc    10   UNL   H17  483     0.033367      1.00800 ; qtot -0.615
   484   hc    10   UNL   H18  484     0.033367      1.00800 ; qtot -0.582
   485   hc    10   UNL   H19  485     0.033367      1.00800 ; qtot -0.548
   486   hc    10   UNL   H20  486     0.039450      1.00800 ; qtot -0.509
   487   hc    10   UNL   H21  487     0.039450      1.00800 ; qtot -0.470
   488   hc    10   UNL   H22  488     0.051200      1.00800 ; qtot -0.418
   489   hc    10   UNL   H23  489     0.032867      1.00800 ; qtot -0.386
   490   hc    10   UNL   H24  490     0.032867      1.00800 ; qtot -0.353
   491   hc    10   UNL   H25  491     0.032867      1.00800 ; qtot -0.320
   492   hc    10   UNL   H26  492     0.038950      1.00800 ; qtot -0.281
   493   hc    10   UNL   H27  493     0.038950      1.00800 ; qtot -0.242
   494   hc    10   UNL   H28  494     0.043700      1.00800 ; qtot -0.198
   495   hc    10   UNL   H29  495     0.033033      1.00800 ; qtot -0.165
   496   hc    10   UNL   H30  496     0.033033      1.00800 ; qtot -0.132
   497   hc    10   UNL   H31  497     0.033033      1.00800 ; qtot -0.099
   498   hc    10   UNL   H32  498     0.033033      1.00800 ; qtot -0.066
   499   hc    10   UNL   H33  499     0.033033      1.00800 ; qtot -0.033
   500   hc    10   UNL   H34  500     0.033033      1.00800 ; qtot -0.000
   501   c3    11   UNL    C1  501    -0.089850     12.01000 ; qtot -0.090
   502   c3    11   UNL    C2  502    -0.065700     12.01000 ; qtot -0.156
   503   c3    11   UNL    C3  503    -0.089850     12.01000 ; qtot -0.245
   504   c3    11   UNL    C4  504    -0.072900     12.01000 ; qtot -0.318
   505   c3    11   UNL    C5  505    -0.065200     12.01000 ; qtot -0.383
   506   c3    11   UNL    C6  506    -0.088600     12.01000 ; qtot -0.472
   507   c3    11   UNL    C7  507    -0.072400     12.01000 ; qtot -0.544
   508   c3    11   UNL    C8  508    -0.061700     12.01000 ; qtot -0.606
   509   c3    11   UNL    C9  509    -0.089099     12.01000 ; qtot -0.695
   510   c3    11   UNL   C10  510    -0.072400     12.01000 ; qtot -0.768
   511   c3    11   UNL   C11  511    -0.065200     12.01000 ; qtot -0.833
   512   c3    11   UNL   C12  512    -0.088600     12.01000 ; qtot -0.921
   513   c3    11   UNL   C13  513    -0.072900     12.01000 ; qtot -0.994
   514   c3    11   UNL   C14  514    -0.065700     12.01000 ; qtot -1.060
   515   c3    11   UNL   C15  515    -0.089850     12.01000 ; qtot -1.150
   516   c3    11   UNL   C16  516    -0.089850     12.01000 ; qtot -1.240
   517   hc    11   UNL    H1  517     0.033033      1.00800 ; qtot -1.207
   518   hc    11   UNL    H2  518     0.033033      1.00800 ; qtot -1.174
   519   hc    11   UNL    H3  519     0.033033      1.00800 ; qtot -1.141
   520   hc    11   UNL    H4  520     0.043700      1.00800 ; qtot -1.097
   521   hc    11   UNL    H5  521     0.033033      1.00800 ; qtot -1.064
   522   hc    11   UNL    H6  522     0.033033      1.00800 ; qtot -1.031
   523   hc    11   UNL    H7  523     0.033033      1.00800 ; qtot -0.998
   524   hc    11   UNL    H8  524     0.038950      1.00800 ; qtot -0.959
   525   hc    11   UNL    H9  525     0.038950      1.00800 ; qtot -0.920
   526   hc    11   UNL   H10  526     0.051200      1.00800 ; qtot -0.869
   527   hc    11   UNL   H11  527     0.032867      1.00800 ; qtot -0.836
   528   hc    11   UNL   H12  528     0.032867      1.00800 ; qtot -0.803
   529   hc    11   UNL   H13  529     0.032867      1.00800 ; qtot -0.770
   530   hc    11   UNL   H14  530     0.039450      1.00800 ; qtot -0.731
   531   hc    11   UNL   H15  531     0.039450      1.00800 ; qtot -0.691
   532   hc    11   UNL   H16  532     0.042700      1.00800 ; qtot -0.649
   533   hc    11   UNL   H17  533     0.033367      1.00800 ; qtot -0.615
   534   hc    11   UNL   H18  534     0.033367      1.00800 ; qtot -0.582
   535   hc    11   UNL   H19  535     0.033367      1.00800 ; qtot -0.548
   536   hc    11   UNL   H20  536     0.039450      1.00800 ; qtot -0.509
   537   hc    11   UNL   H21  537     0.039450      1.00800 ; qtot -0.470
   538   hc    11   UNL   H22  538     0.051200      1.00800 ; qtot -0.418
   539   hc    11   UNL   H23  539     0.032867      1.00800 ; qtot -0.386
   540   hc    11   UNL   H24  540     0.032867      1.00800 ; qtot -0.353
   541   hc    11   UNL   H25  541     0.032867      1.00800 ; qtot -0.320
   542   hc    11   UNL   H26  542     0.038950      1.00800 ; qtot -0.281
   543   hc    11   UNL   H27  543     0.038950      1.00800 ; qtot -0.242
   544   hc    11   UNL   H28  544     0.043700      1.00800 ; qtot -0.198
   545   hc    11   UNL   H29  545     0.033033      1.00800 ; qtot -0.165
   546   hc    11   UNL   H30  546     0.033033      1.00800 ; qtot -0.132
   547   hc    11   UNL   H31  547     0.033033      1.00800 ; qtot -0.099
   548   hc    11   UNL   H32  548     0.033033      1.00800 ; qtot -0.066
   549   hc    11   UNL   H33  549     0.033033      1.00800 ; qtot -0.033
   550   hc    11   UNL   H34  550     0.033033      1.00800 ; qtot -0.000
   551   c3    12   UNL    C1  551    -0.089850     12.01000 ; qtot -0.090
   552   c3    12   UNL    C2  552    -0.065700     12.01000 ; qtot -0.156
   553   c3    12   UNL    C3  553    -0.089850     12.01000 ; qtot -0.245
   554   c3    12   UNL    C4  554    -0.072900     12.01000 ; qtot -0.318
   555   c3    12   UNL    C5  555    -0.065200     12.01000 ; qtot -0.383
   556   c3    12   UNL    C6  556    -0.088600     12.01000 ; qtot -0.472
   557   c3    12   UNL    C7  557    -0.072400     12.01000 ; qtot -0.544
   558   c3    12   UNL    C8  558    -0.061700     12.01000 ; qtot -0.606
   559   c3    12   UNL    C9  559    -0.089099     12.01000 ; qtot -0.695
   560   c3    12   UNL   C10  560    -0.072400     12.01000 ; qtot -0.768
   561   c3    12   UNL   C11  561    -0.065200     12.01000 ; qtot -0.833
   562   c3    12   UNL   C12  562    -0.088600     12.01000 ; qtot -0.921
   563   c3    12   UNL   C13  563    -0.072900     12.01000 ; qtot -0.994
   564   c3    12   UNL   C14  564    -0.065700     12.01000 ; qtot -1.060
   565   c3    12   UNL   C15  565    -0.089850     12.01000 ; qtot -1.150
   566   c3    12   UNL   C16  566    -0.089850     12.01000 ; qtot -1.240
   567   hc    12   UNL    H1  567     0.033033      1.00800 ; qtot -1.207
   568   hc    12   UNL    H2  568     0.033033      1.00800 ; qtot -1.174
   569   hc    12   UNL    H3  569     0.033033      1.00800 ; qtot -1.141
   570   hc    12   UNL    H4  570     0.043700      1.00800 ; qtot -1.097
   571   hc    12   UNL    H5  571     0.033033      1.00800 ; qtot -1.064
   572   hc    12   UNL    H6  572     0.033033      1.00800 ; qtot -1.031
   573   hc    12   UNL    H7  573     0.033033      1.00800 ; qtot -0.998
   574   hc    12   UNL    H8  574     0.038950      1.00800 ; qtot -0.959
   575   hc    12   UNL    H9  575     0.038950      1.00800 ; qtot -0.920
   576   hc    12   UNL   H10  576     0.051200      1.00800 ; qtot -0.869
   577   hc    12   UNL   H11  577     0.032867      1.00800 ; qtot -0.836
   578   hc    12   UNL   H12  578     0.032867      1.00800 ; qtot -0.803
   579   hc    12   UNL   H13  579     0.032867      1.00800 ; qtot -0.770
   580   hc    12   UNL   H14  580     0.039450      1.00800 ; qtot -0.731
   581   hc    12   UNL   H15  581     0.039450      1.00800 ; qtot -0.691
   582   hc    12   UNL   H16  582     0.042700      1.00800 ; qtot -0.649
   583   hc    12   UNL   H17  583     0.033367      1.00800 ; qtot -0.615
   584   hc    12   UNL   H18  584     0.033367      1.00800 ; qtot -0.582
   585   hc    12   UNL   H19  585     0.033367      1.00800 ; qtot -0.548
   586   hc    12   UNL   H20  586     0.039450      1.00800 ; qtot -0.509
   587   hc    12   UNL   H21  587     0.039450      1.00800 ; qtot -0.470
   588   hc    12   UNL   H22  588     0.051200      1.00800 ; qtot -0.418
   589   hc    12   UNL   H23  589     0.032867      1.00800 ; qtot -0.386
   590   hc    12   UNL   H24  590     0.032867      1.00800 ; qtot -0.353
   591   hc    12   UNL   H25  591     0.032867      1.00800 ; qtot -0.320
   592   hc    12   UNL   H26  592     0.038950      1.00800 ; qtot -0.281
   593   hc    12   UNL   H27  593     0.038950      1.00800 ; qtot -0.242
   594   hc    12   UNL   H28  594     0.043700      1.00800 ; qtot -0.198
   595   hc    12   UNL   H29  595     0.033033      1.00800 ; qtot -0.165
   596   hc    12   UNL   H30  596     0.033033      1.00800 ; qtot -0.132
   597   hc    12   UNL   H31  597     0.033033      1.00800 ; qtot -0.099
   598   hc    12   UNL   H32  598     0.033033      1.00800 ; qtot -0.066
   599   hc    12   UNL   H33  599     0.033033      1.00800 ; qtot -0.033
   600   hc    12   UNL   H34  600     0.033033      1.00800 ; qtot -0.000
   601   c3    13   UNL    C1  601    -0.089850     12.01000 ; qtot -0.090
   602   c3    13   UNL    C2  602    -0.065700     12.01000 ; qtot -0.156
   603   c3    13   UNL    C3  603    -0.089850     12.01000 ; qtot -0.245
   604   c3    13   UNL    C4  604    -0.072900     12.01000 ; qtot -0.318
   605   c3    13   UNL    C5  605    -0.065200     12.01000 ; qtot -0.383
   606   c3    13   UNL    C6  606    -0.088600     12.01000 ; qtot -0.472
   607   c3    13   UNL    C7  607    -0.072400     12.01000 ; qtot -0.544
   608   c3    13   UNL    C8  608    -0.061700     12.01000 ; qtot -0.606
   609   c3    13   UNL    C9  609    -0.089099     12.01000 ; qtot -0.695
   610   c3    13   UNL   C10  610    -0.072400     12.01000 ; qtot -0.768
   611   c3    13   UNL   C11  611    -0.065200     12.01000 ; qtot -0.833
   612   c3    13   UNL   C12  612    -0.088600     12.01000 ; qtot -0.921
   613   c3    13   UNL   C13  613    -0.072900     12.01000 ; qtot -0.994
   614   c3    13   UNL   C14  614    -0.065700     12.01000 ; qtot -1.060
   615   c3    13   UNL   C15  615    -0.089850     12.01000 ; qtot -1.150
   616   c3    13   UNL   C16  616    -0.089850     12.01000 ; qtot -1.240
   617   hc    13   UNL    H1  617     0.033033      1.00800 ; qtot -1.207
   618   hc    13   UNL    H2  618     0.033033      1.00800 ; qtot -1.174
   619   hc    13   UNL    H3  619     0.033033      1.00800 ; qtot -1.141
   620   hc    13   UNL    H4  620     0.043700      1.00800 ; qtot -1.097
   621   hc    13   UNL    H5  621     0.033033      1.00800 ; qtot -1.064
   622   hc    13   UNL    H6  622     0.033033      1.00800 ; qtot -1.031
   623   hc    13   UNL    H7  623     0.033033      1.00800 ; qtot -0.998
   624   hc    13   UNL    H8  624     0.038950      1.00800 ; qtot -0.959
   625   hc    13   UNL    H9  625     0.038950      1.00800 ; qtot -0.920
   626   hc    13   UNL   H10  626     0.051200      1.00800 ; qtot -0.869
   627   hc    13   UNL   H11  627     0.032867      1.00800 ; qtot -0.836
   628   hc    13   UNL   H12  628     0.032867      1.00800 ; qtot -0.803
   629   hc    13   UNL   H13  629     0.032867      1.00800 ; qtot -0.770
   630   hc    13   UNL   H14  630     0.039450      1.00800 ; qtot -0.731
   631   hc    13   UNL   H15  631     0.039450      1.00800 ; qtot -0.691
   632   hc    13   UNL   H16  632     0.042700      1.00800 ; qtot -0.649
   633   hc    13   UNL   H17  633     0.033367      1.00800 ; qtot -0.615
   634   hc    13   UNL   H18  634     0.033367      1.00800 ; qtot -0.582
   635   hc    13   UNL   H19  635     0.033367      1.00800 ; qtot -0.548
   636   hc    13   UNL   H20  636     0.039450      1.00800 ; qtot -0.509
   637   hc    13   UNL   H21  637     0.039450      1.00800 ; qtot -0.470
   638   hc    13   UNL   H22  638     0.051200      1.00800 ; qtot -0.418
   639   hc    13   UNL   H23  639     0.032867      1.00800 ; qtot -0.386
   640   hc    13   UNL   H24  640     0.032867      1.00800 ; qtot -0.353
   641   hc    13   UNL   H25  641     0.032867      1.00800 ; qtot -0.320
   642   hc    13   UNL   H26  642     0.038950      1.00800 ; qtot -0.281
   643   hc    13   UNL   H27  643     0.038950      1.00800 ; qtot -0.242
   644   hc    13   UNL   H28  644     0.043700      1.00800 ; qtot -0.198
   645   hc    13   UNL   H29  645     0.033033      1.00800 ; qtot -0.165
   646   hc    13   UNL   H30  646     0.033033      1.00800 ; qtot -0.132
   647   hc    13   UNL   H31  647     0.033033      1.00800 ; qtot -0.099
   648   hc    13   UNL   H32  648     0.033033      1.00800 ; qtot -0.066
   649   hc    13   UNL   H33  649     0.033033      1.00800 ; qtot -0.033
   650   hc    13   UNL   H34  650     0.033033      1.00800 ; qtot -0.000
   651   c3    14   UNL    C1  651    -0.089850     12.01000 ; qtot -0.090
   652   c3    14   UNL    C2  652    -0.065700     12.01000 ; qtot -0.156
   653   c3    14   UNL    C3  653    -0.089850     12.01000 ; qtot -0.245
   654   c3    14   UNL    C4  654    -0.072900     12.01000 ; qtot -0.318
   655   c3    14   UNL    C5  655    -0.065200     12.01000 ; qtot -0.383
   656   c3    14   UNL    C6  656    -0.088600     12.01000 ; qtot -0.472
   657   c3    14   UNL    C7  657    -0.072400     12.01000 ; qtot -0.544
   658   c3    14   UNL    C8  658    -0.061700     12.01000 ; qtot -0.606
   659   c3    14   UNL    C9  659    -0.089099     12.01000 ; qtot -0.695
   660   c3    14   UNL   C10  660    -0.072400     12.01000 ; qtot -0.768
   661   c3    14   UNL   C11  661    -0.065200     12.01000 ; qtot -0.833
   662   c3    14   UNL   C12  662    -0.088600     12.01000 ; qtot -0.921
   663   c3    14   UNL   C13  663    -0.072900     12.01000 ; qtot -0.994
   664   c3    14   UNL   C14  664    -0.065700     12.01000 ; qtot -1.060
   665   c3    14   UNL   C15  665    -0.089850     12.01000 ; qtot -1.150
   666   c3    14   UNL   C16  666    -0.089850     12.01000 ; qtot -1.240
   667   hc    14   UNL    H1  667     0.033033      1.00800 ; qtot -1.207
   668   hc    14   UNL    H2  668     0.033033      1.00800 ; qtot -1.174
   669   hc    14   UNL    H3  669     0.033033      1.00800 ; qtot -1.141
   670   hc    14   UNL    H4  670     0.043700      1.00800 ; qtot -1.097
   671   hc    14   UNL    H5  671     0.033033      1.00800 ; qtot -1.064
   672   hc    14   UNL    H6  672     0.033033      1.00800 ; qtot -1.031
   673   hc    14   UNL    H7  673     0.033033      1.00800 ; qtot -0.998
   674   hc    14   UNL    H8  674     0.038950      1.00800 ; qtot -0.959
   675   hc    14   UNL    H9  675     0.038950      1.00800 ; qtot -0.920
   676   hc    14   UNL   H10  676     0.051200      1.00800 ; qtot -0.869
   677   hc    14   UNL   H11  677     0.032867      1.00800 ; qtot -0.836
   678   hc    14   UNL   H12  678     0.032867      1.00800 ; qtot -0.803
   679   hc    14   UNL   H13  679     0.032867      1.00800 ; qtot -0.770
   680   hc    14   UNL   H14  680     0.039450      1.00800 ; qtot -0.731
   681   hc    14   UNL   H15  681     0.039450      1.00800 ; qtot -0.691
   682   hc    14   UNL   H16  682     0.042700      1.00800 ; qtot -0.649
   683   hc    14   UNL   H17  683     0.033367      1.00800 ; qtot -0.615
   684   hc    14   UNL   H18  684     0.033367      1.00800 ; qtot -0.582
   685   hc    14   UNL   H19  685     0.033367      1.00800 ; qtot -0.548
   686   hc    14   UNL   H20  686     0.039450      1.00800 ; qtot -0.509
   687   hc    14   UNL   H21  687     0.039450      1.00800 ; qtot -0.470
   688   hc    14   UNL   H22  688     0.051200      1.00800 ; qtot -0.418
   689   hc    14   UNL   H23  689     0.032867      1.00800 ; qtot -0.386
   690   hc    14   UNL   H24  690     0.032867      1.00800 ; qtot -0.353
   691   hc    14   UNL   H25  691     0.032867      1.00800 ; qtot -0.320
   692   hc    14   UNL   H26  692     0.038950      1.00800 ; qtot -0.281
   693   hc    14   UNL   H27  693     0.038950      1.00800 ; qtot -0.242
   694   hc    14   UNL   H28  694     0.043700      1.00800 ; qtot -0.198
   695   hc    14   UNL   H29  695     0.033033      1.00800 ; qtot -0.165
   696   hc    14   UNL   H30  696     0.033033      1.00800 ; qtot -0.132
   697   hc    14   UNL   H31  697     0.033033      1.00800 ; qtot -0.099
   698   hc    14   UNL   H32  698     0.033033      1.00800 ; qtot -0.066
   699   hc    14   UNL   H33  699     0.033033      1.00800 ; qtot -0.033
   700   hc    14   UNL   H34  700     0.033033      1.00800 ; qtot -0.000
   701   c3    15   UNL    C1  701    -0.089850     12.01000 ; qtot -0.090
   702   c3    15   UNL    C2  702    -0.065700     12.01000 ; qtot -0.156
   703   c3    15   UNL    C3  703    -0.089850     12.01000 ; qtot -0.245
   704   c3    15   UNL    C4  704    -0.072900     12.01000 ; qtot -0.318
   705   c3    15   UNL    C5  705    -0.065200     12.01000 ; qtot -0.383
   706   c3    15   UNL    C6  706    -0.088600     12.01000 ; qtot -0.472
   707   c3    15   UNL    C7  707    -0.072400     12.01000 ; qtot -0.544
   708   c3    15   UNL    C8  708    -0.061700     12.01000 ; qtot -0.606
   709   c3    15   UNL    C9  709    -0.089099     12.01000 ; qtot -0.695
   710   c3    15   UNL   C10  710    -0.072400     12.01000 ; qtot -0.768
   711   c3    15   UNL   C11  711    -0.065200     12.01000 ; qtot -0.833
   712   c3    15   UNL   C12  712    -0.088600     12.01000 ; qtot -0.921
   713   c3    15   UNL   C13  713    -0.072900     12.01000 ; qtot -0.994
   714   c3    15   UNL   C14  714    -0.065700     12.01000 ; qtot -1.060
   715   c3    15   UNL   C15  715    -0.089850     12.01000 ; qtot -1.150
   716   c3    15   UNL   C16  716    -0.089850     12.01000 ; qtot -1.240
   717   hc    15   UNL    H1  717     0.033033      1.00800 ; qtot -1.207
   718   hc    15   UNL    H2  718     0.033033      1.00800 ; qtot -1.174
   719   hc    15   UNL    H3  719     0.033033      1.00800 ; qtot -1.141
   720   hc    15   UNL    H4  720     0.043700      1.00800 ; qtot -1.097
   721   hc    15   UNL    H5  721     0.033033      1.00800 ; qtot -1.064
   722   hc    15   UNL    H6  722     0.033033      1.00800 ; qtot -1.031
   723   hc    15   UNL    H7  723     0.033033      1.00800 ; qtot -0.998
   724   hc    15   UNL    H8  724     0.038950      1.00800 ; qtot -0.959
   725   hc    15   UNL    H9  725     0.038950      1.00800 ; qtot -0.920
   726   hc    15   UNL   H10  726     0.051200      1.00800 ; qtot -0.869
   727   hc    15   UNL   H11  727     0.032867      1.00800 ; qtot -0.836
   728   hc    15   UNL   H12  728     0.032867      1.00800 ; qtot -0.803
   729   hc    15   UNL   H13  729     0.032867      1.00800 ; qtot -0.770
   730   hc    15   UNL   H14  730     0.039450      1.00800 ; qtot -0.731
   731   hc    15   UNL   H15  731     0.039450      1.00800 ; qtot -0.691
   732   hc    15   UNL   H16  732     0.042700      1.00800 ; qtot -0.649
   733   hc    15   UNL   H17  733     0.033367      1.00800 ; qtot -0.615
   734   hc    15   UNL   H18  734     0.033367      1.00800 ; qtot -0.582
   735   hc    15   UNL   H19  735     0.033367      1.00800 ; qtot -0.548
   736   hc    15   UNL   H20  736     0.039450      1.00800 ; qtot -0.509
   737   hc    15   UNL   H21  737     0.039450      1.00800 ; qtot -0.470
   738   hc    15   UNL   H22  738     0.051200      1.00800 ; qtot -0.418
   739   hc    15   UNL   H23  739     0.032867      1.00800 ; qtot -0.386
   740   hc    15   UNL   H24  740     0.032867      1.00800 ; qtot -0.353
   741   hc    15   UNL   H25  741     0.032867      1.00800 ; qtot -0.320
   742   hc    15   UNL   H26  742     0.038950      1.00800 ; qtot -0.281
   743   hc    15   UNL   H27  743     0.038950      1.00800 ; qtot -0.242
   744   hc    15   UNL   H28  744     0.043700      1.00800 ; qtot -0.198
   745   hc    15   UNL   H29  745     0.033033      1.00800 ; qtot -0.165
   746   hc    15   UNL   H30  746     0.033033      1.00800 ; qtot -0.132
   747   hc    15   UNL   H31  747     0.033033      1.00800 ; qtot -0.099
   748   hc    15   UNL   H32  748     0.033033      1.00800 ; qtot -0.066
   749   hc    15   UNL   H33  749     0.033033      1.00800 ; qtot -0.033
   750   hc    15   UNL   H34  750     0.033033      1.00800 ; qtot -0.000
   751   c3    16   UNL    C1  751    -0.089850     12.01000 ; qtot -0.090
   752   c3    16   UNL    C2  752    -0.065700     12.01000 ; qtot -0.156
   753   c3    16   UNL    C3  753    -0.089850     12.01000 ; qtot -0.245
   754   c3    16   UNL    C4  754    -0.072900     12.01000 ; qtot -0.318
   755   c3    16   UNL    C5  755    -0.065200     12.01000 ; qtot -0.383
   756   c3    16   UNL    C6  756    -0.088600     12.01000 ; qtot -0.472
   757   c3    16   UNL    C7  757    -0.072400     12.01000 ; qtot -0.544
   758   c3    16   UNL    C8  758    -0.061700     12.01000 ; qtot -0.606
   759   c3    16   UNL    C9  759    -0.089099     12.01000 ; qtot -0.695
   760   c3    16   UNL   C10  760    -0.072400     12.01000 ; qtot -0.768
   761   c3    16   UNL   C11  761    -0.065200     12.01000 ; qtot -0.833
   762   c3    16   UNL   C12  762    -0.088600     12.01000 ; qtot -0.921
   763   c3    16   UNL   C13  763    -0.072900     12.01000 ; qtot -0.994
   764   c3    16   UNL   C14  764    -0.065700     12.01000 ; qtot -1.060
   765   c3    16   UNL   C15  765    -0.089850     12.01000 ; qtot -1.150
   766   c3    16   UNL   C16  766    -0.089850     12.01000 ; qtot -1.240
   767   hc    16   UNL    H1  767     0.033033      1.00800 ; qtot -1.207
   768   hc    16   UNL    H2  768     0.033033      1.00800 ; qtot -1.174
   769   hc    16   UNL    H3  769     0.033033      1.00800 ; qtot -1.141
   770   hc    16   UNL    H4  770     0.043700      1.00800 ; qtot -1.097
   771   hc    16   UNL    H5  771     0.033033      1.00800 ; qtot -1.064
   772   hc    16   UNL    H6  772     0.033033      1.00800 ; qtot -1.031
   773   hc    16   UNL    H7  773     0.033033      1.00800 ; qtot -0.998
   774   hc    16   UNL    H8  774     0.038950      1.00800 ; qtot -0.959
   775   hc    16   UNL    H9  775     0.038950      1.00800 ; qtot -0.920
   776   hc    16   UNL   H10  776     0.051200      1.00800 ; qtot -0.869
   777   hc    16   UNL   H11  777     0.032867      1.00800 ; qtot -0.836
   778   hc    16   UNL   H12  778     0.032867      1.00800 ; qtot -0.803
   779   hc    16   UNL   H13  779     0.032867      1.00800 ; qtot -0.770
   780   hc    16   UNL   H14  780     0.039450      1.00800 ; qtot -0.731
   781   hc    16   UNL   H15  781     0.039450      1.00800 ; qtot -0.691
   782   hc    16   UNL   H16  782     0.042700      1.00800 ; qtot -0.649
   783   hc    16   UNL   H17  783     0.033367      1.00800 ; qtot -0.615
   784   hc    16   UNL   H18  784     0.033367      1.00800 ; qtot -0.582
   785   hc    16   UNL   H19  785     0.033367      1.00800 ; qtot -0.548
   786   hc    16   UNL   H20  786     0.039450      1.00800 ; qtot -0.509
   787   hc    16   UNL   H21  787     0.039450      1.00800 ; qtot -0.470
   788   hc    16   UNL   H22  788     0.051200      1.00800 ; qtot -0.418
   789   hc    16   UNL   H23  789     0.032867      1.00800 ; qtot -0.386
   790   hc    16   UNL   H24  790     0.032867      1.00800 ; qtot -0.353
   791   hc    16   UNL   H25  791     0.032867      1.00800 ; qtot -0.320
   792   hc    16   UNL   H26  792     0.038950      1.00800 ; qtot -0.281
   793   hc    16   UNL   H27  793     0.038950      1.00800 ; qtot -0.242
   794   hc    16   UNL   H28  794     0.043700      1.00800 ; qtot -0.198
   795   hc    16   UNL   H29  795     0.033033      1.00800 ; qtot -0.165
   796   hc    16   UNL   H30  796     0.033033      1.00800 ; qtot -0.132
   797   hc    16   UNL   H31  797     0.033033      1.00800 ; qtot -0.099
   798   hc    16   UNL   H32  798     0.033033      1.00800 ; qtot -0.066
   799   hc    16   UNL   H33  799     0.033033      1.00800 ; qtot -0.033
   800   hc    16   UNL   H34  800     0.033033      1.00800 ; qtot -0.000
   801   c3    17   UNL    C1  801    -0.089850     12.01000 ; qtot -0.090
   802   c3    17   UNL    C2  802    -0.065700     12.01000 ; qtot -0.156
   803   c3    17   UNL    C3  803    -0.089850     12.01000 ; qtot -0.245
   804   c3    17   UNL    C4  804    -0.072900     12.01000 ; qtot -0.318
   805   c3    17   UNL    C5  805    -0.065200     12.01000 ; qtot -0.383
   806   c3    17   UNL    C6  806    -0.088600     12.01000 ; qtot -0.472
   807   c3    17   UNL    C7  807    -0.072400     12.01000 ; qtot -0.544
   808   c3    17   UNL    C8  808    -0.061700     12.01000 ; qtot -0.606
   809   c3    17   UNL    C9  809    -0.089099     12.01000 ; qtot -0.695
   810   c3    17   UNL   C10  810    -0.072400     12.01000 ; qtot -0.768
   811   c3    17   UNL   C11  811    -0.065200     12.01000 ; qtot -0.833
   812   c3    17   UNL   C12  812    -0.088600     12.01000 ; qtot -0.921
   813   c3    17   UNL   C13  813    -0.072900     12.01000 ; qtot -0.994
   814   c3    17   UNL   C14  814    -0.065700     12.01000 ; qtot -1.060
   815   c3    17   UNL   C15  815    -0.089850     12.01000 ; qtot -1.150
   816   c3    17   UNL   C16  816    -0.089850     12.01000 ; qtot -1.240
   817   hc    17   UNL    H1  817     0.033033      1.00800 ; qtot -1.207
   818   hc    17   UNL    H2  818     0.033033      1.00800 ; qtot -1.174
   819   hc    17   UNL    H3  819     0.033033      1.00800 ; qtot -1.141
   820   hc    17   UNL    H4  820     0.043700      1.00800 ; qtot -1.097
   821   hc    17   UNL    H5  821     0.033033      1.00800 ; qtot -1.064
   822   hc    17   UNL    H6  822     0.033033      1.00800 ; qtot -1.031
   823   hc    17   UNL    H7  823     0.033033      1.00800 ; qtot -0.998
   824   hc    17   UNL    H8  824     0.038950      1.00800 ; qtot -0.959
   825   hc    17   UNL    H9  825     0.038950      1.00800 ; qtot -0.920
   826   hc    17   UNL   H10  826     0.051200      1.00800 ; qtot -0.869
   827   hc    17   UNL   H11  827     0.032867      1.00800 ; qtot -0.836
   828   hc    17   UNL   H12  828     0.032867      1.00800 ; qtot -0.803
   829   hc    17   UNL   H13  829     0.032867      1.00800 ; qtot -0.770
   830   hc    17   UNL   H14  830     0.039450      1.00800 ; qtot -0.731
   831   hc    17   UNL   H15  831     0.039450      1.00800 ; qtot -0.691
   832   hc    17   UNL   H16  832     0.042700      1.00800 ; qtot -0.649
   833   hc    17   UNL   H17  833     0.033367      1.00800 ; qtot -0.615
   834   hc    17   UNL   H18  834     0.033367      1.00800 ; qtot -0.582
   835   hc    17   UNL   H19  835     0.033367      1.00800 ; qtot -0.548
   836   hc    17   UNL   H20  836     0.039450      1.00800 ; qtot -0.509
   837   hc    17   UNL   H21  837     0.039450      1.00800 ; qtot -0.470
   838   hc    17   UNL   H22  838     0.051200      1.00800 ; qtot -0.418
   839   hc    17   UNL   H23  839     0.032867      1.00800 ; qtot -0.386
   840   hc    17   UNL   H24  840     0.032867      1.00800 ; qtot -0.353
   841   hc    17   UNL   H25  841     0.032867      1.00800 ; qtot -0.320
   842   hc    17   UNL   H26  842     0.038950      1.00800 ; qtot -0.281
   843   hc    17   UNL   H27  843     0.038950      1.00800 ; qtot -0.242
   844   hc    17   UNL   H28  844     0.043700      1.00800 ; qtot -0.198
   845   hc    17   UNL   H29  845     0.033033      1.00800 ; qtot -0.165
   846   hc    17   UNL   H30  846     0.033033      1.00800 ; qtot -0.132
   847   hc    17   UNL   H31  847     0.033033      1.00800 ; qtot -0.099
   848   hc    17   UNL   H32  848     0.033033      1.00800 ; qtot -0.066
   849   hc    17   UNL   H33  849     0.033033      1.00800 ; qtot -0.033
   850   hc    17   UNL   H34  850     0.033033      1.00800 ; qtot -0.000
   851   c3    18   UNL    C1  851    -0.089850     12.01000 ; qtot -0.090
   852   c3    18   UNL    C2  852    -0.065700     12.01000 ; qtot -0.156
   853   c3    18   UNL    C3  853    -0.089850     12.01000 ; qtot -0.245
   854   c3    18   UNL    C4  854    -0.072900     12.01000 ; qtot -0.318
   855   c3    18   UNL    C5  855    -0.065200     12.01000 ; qtot -0.383
   856   c3    18   UNL    C6  856    -0.088600     12.01000 ; qtot -0.472
   857   c3    18   UNL    C7  857    -0.072400     12.01000 ; qtot -0.544
   858   c3    18   UNL    C8  858    -0.061700     12.01000 ; qtot -0.606
   859   c3    18   UNL    C9  859    -0.089099     12.01000 ; qtot -0.695
   860   c3    18   UNL   C10  860    -0.072400     12.01000 ; qtot -0.768
   861   c3    18   UNL   C11  861    -0.065200     12.01000 ; qtot -0.833
   862   c3    18   UNL   C12  862    -0.088600     12.01000 ; qtot -0.921
   863   c3    18   UNL   C13  863    -0.072900     12.01000 ; qtot -0.994
   864   c3    18   UNL   C14  864    -0.065700     12.01000 ; qtot -1.060
   865   c3    18   UNL   C15  865    -0.089850     12.01000 ; qtot -1.150
   866   c3    18   UNL   C16  866    -0.089850     12.01000 ; qtot -1.240
   867   hc    18   UNL    H1  867     0.033033      1.00800 ; qtot -1.207
   868   hc    18   UNL    H2  868     0.033033      1.00800 ; qtot -1.174
   869   hc    18   UNL    H3  869     0.033033      1.00800 ; qtot -1.141
   870   hc    18   UNL    H4  870     0.043700      1.00800 ; qtot -1.097
   871   hc    18   UNL    H5  871     0.033033      1.00800 ; qtot -1.064
   872   hc    18   UNL    H6  872     0.033033      1.00800 ; qtot -1.031
   873   hc    18   UNL    H7  873     0.033033      1.00800 ; qtot -0.998
   874   hc    18   UNL    H8  874     0.038950      1.00800 ; qtot -0.959
   875   hc    18   UNL    H9  875     0.038950      1.00800 ; qtot -0.920
   876   hc    18   UNL   H10  876     0.051200      1.00800 ; qtot -0.869
   877   hc    18   UNL   H11  877     0.032867      1.00800 ; qtot -0.836
   878   hc    18   UNL   H12  878     0.032867      1.00800 ; qtot -0.803
   879   hc    18   UNL   H13  879     0.032867      1.00800 ; qtot -0.770
   880   hc    18   UNL   H14  880     0.039450      1.00800 ; qtot -0.731
   881   hc    18   UNL   H15  881     0.039450      1.00800 ; qtot -0.691
   882   hc    18   UNL   H16  882     0.042700      1.00800 ; qtot -0.649
   883   hc    18   UNL   H17  883     0.033367      1.00800 ; qtot -0.615
   884   hc    18   UNL   H18  884     0.033367      1.00800 ; qtot -0.582
   885   hc    18   UNL   H19  885     0.033367      1.00800 ; qtot -0.548
   886   hc    18   UNL   H20  886     0.039450      1.00800 ; qtot -0.509
   887   hc    18   UNL   H21  887     0.039450      1.00800 ; qtot -0.470
   888   hc    18   UNL   H22  888     0.051200      1.00800 ; qtot -0.418
   889   hc    18   UNL   H23  889     0.032867      1.00800 ; qtot -0.386
   890   hc    18   UNL   H24  890     0.032867      1.00800 ; qtot -0.353
   891   hc    18   UNL   H25  891     0.032867      1.00800 ; qtot -0.320
   892   hc    18   UNL   H26  892     0.038950      1.00800 ; qtot -0.281
   893   hc    18   UNL   H27  893     0.038950      1.00800 ; qtot -0.242
   894   hc    18   UNL   H28  894     0.043700      1.00800 ; qtot -0.198
   895   hc    18   UNL   H29  895     0.033033      1.00800 ; qtot -0.165
   896   hc    18   UNL   H30  896     0.033033      1.00800 ; qtot -0.132
   897   hc    18   UNL   H31  897     0.033033      1.00800 ; qtot -0.099
   898   hc    18   UNL   H32  898     0.033033      1.00800 ; qtot -0.066
   899   hc    18   UNL   H33  899     0.033033      1.00800 ; qtot -0.033
   900   hc    18   UNL   H34  900     0.033033      1.00800 ; qtot -0.000
   901   c3    19   UNL    C1  901    -0.089850     12.01000 ; qtot -0.090
   902   c3    19   UNL    C2  902    -0.065700     12.01000 ; qtot -0.156
   903   c3    19   UNL    C3  903    -0.089850     12.01000 ; qtot -0.245
   904   c3    19   UNL    C4  904    -0.072900     12.01000 ; qtot -0.318
   905   c3    19   UNL    C5  905    -0.065200     12.01000 ; qtot -0.383
   906   c3    19   UNL    C6  906    -0.088600     12.01000 ; qtot -0.472
   907   c3    19   UNL    C7  907    -0.072400     12.01000 ; qtot -0.544
   908   c3    19   UNL    C8  908    -0.061700     12.01000 ; qtot -0.606
   909   c3    19   UNL    C9  909    -0.089099     12.01000 ; qtot -0.695
   910   c3    19   UNL   C10  910    -0.072400     12.01000 ; qtot -0.768
   911   c3    19   UNL   C11  911    -0.065200     12.01000 ; qtot -0.833
   912   c3    19   UNL   C12  912    -0.088600     12.01000 ; qtot -0.921
   913   c3    19   UNL   C13  913    -0.072900     12.01000 ; qtot -0.994
   914   c3    19   UNL   C14  914    -0.065700     12.01000 ; qtot -1.060
   915   c3    19   UNL   C15  915    -0.089850     12.01000 ; qtot -1.150
   916   c3    19   UNL   C16  916    -0.089850     12.01000 ; qtot -1.240
   917   hc    19   UNL    H1  917     0.033033      1.00800 ; qtot -1.207
   918   hc    19   UNL    H2  918     0.033033      1.00800 ; qtot -1.174
   919   hc    19   UNL    H3  919     0.033033      1.00800 ; qtot -1.141
   920   hc    19   UNL    H4  920     0.043700      1.00800 ; qtot -1.097
   921   hc    19   UNL    H5  921     0.033033      1.00800 ; qtot -1.064
   922   hc    19   UNL    H6  922     0.033033      1.00800 ; qtot -1.031
   923   hc    19   UNL    H7  923     0.033033      1.00800 ; qtot -0.998
   924   hc    19   UNL    H8  924     0.038950      1.00800 ; qtot -0.959
   925   hc    19   UNL    H9  925     0.038950      1.00800 ; qtot -0.920
   926   hc    19   UNL   H10  926     0.051200      1.00800 ; qtot -0.869
   927   hc    19   UNL   H11  927     0.032867      1.00800 ; qtot -0.836
   928   hc    19   UNL   H12  928     0.032867      1.00800 ; qtot -0.803
   929   hc    19   UNL   H13  929     0.032867      1.00800 ; qtot -0.770
   930   hc    19   UNL   H14  930     0.039450      1.00800 ; qtot -0.731
   931   hc    19   UNL   H15  931     0.039450      1.00800 ; qtot -0.691
   932   hc    19   UNL   H16  932     0.042700      1.00800 ; qtot -0.649
   933   hc    19   UNL   H17  933     0.033367      1.00800 ; qtot -0.615
   934   hc    19   UNL   H18  934     0.033367      1.00800 ; qtot -0.582
   935   hc    19   UNL   H19  935     0.033367      1.00800 ; qtot -0.548
   936   hc    19   UNL   H20  936     0.039450      1.00800 ; qtot -0.509
   937   hc    19   UNL   H21  937     0.039450      1.00800 ; qtot -0.470
   938   hc    19   UNL   H22  938     0.051200      1.00800 ; qtot -0.418
   939   hc    19   UNL   H23  939     0.032867      1.00800 ; qtot -0.386
   940   hc    19   UNL   H24  940     0.032867      1.00800 ; qtot -0.353
   941   hc    19   UNL   H25  941     0.032867      1.00800 ; qtot -0.320
   942   hc    19   UNL   H26  942     0.038950      1.00800 ; qtot -0.281
   943   hc    19   UNL   H27  943     0.038950      1.00800 ; qtot -0.242
   944   hc    19   UNL   H28  944     0.043700      1.00800 ; qtot -0.198
   945   hc    19   UNL   H29  945     0.033033      1.00800 ; qtot -0.165
   946   hc    19   UNL   H30  946     0.033033      1.00800 ; qtot -0.132
   947   hc    19   UNL   H31  947     0.033033      1.00800 ; qtot -0.099
   948   hc    19   UNL   H32  948     0.033033      1.00800 ; qtot -0.066
   949   hc    19   UNL   H33  949     0.033033      1.00800 ; qtot -0.033
   950   hc    19   UNL   H34  950     0.033033      1.00800 ; qtot -0.000
   951   c3    20   UNL    C1  951    -0.089850     12.01000 ; qtot -0.090
   952   c3    20   UNL    C2  952    -0.065700     12.01000 ; qtot -0.156
   953   c3    20   UNL    C3  953    -0.089850     12.01000 ; qtot -0.245
   954   c3    20   UNL    C4  954    -0.072900     12.01000 ; qtot -0.318
   955   c3    20   UNL    C5  955    -0.065200     12.01000 ; qtot -0.383
   956   c3    20   UNL    C6  956    -0.088600     12.01000 ; qtot -0.472
   957   c3    20   UNL    C7  957    -0.072400     12.01000 ; qtot -0.544
   958   c3    20   UNL    C8  958    -0.061700     12.01000 ; qtot -0.606
   959   c3    20   UNL    C9  959    -0.089099     12.01000 ; qtot -0.695
   960   c3    20   UNL   C10  960    -0.072400     12.01000 ; qtot -0.768
   961   c3    20   UNL   C11  961    -0.065200     12.01000 ; qtot -0.833
   962   c3    20   UNL   C12  962    -0.088600     12.01000 ; qtot -0.921
   963   c3    20   UNL   C13  963    -0.072900     12.01000 ; qtot -0.994
   964   c3    20   UNL   C14  964    -0.065700     12.01000 ; qtot -1.060
   965   c3    20   UNL   C15  965    -0.089850     12.01000 ; qtot -1.150
   966   c3    20   UNL   C16  966    -0.089850     12.01000 ; qtot -1.240
   967   hc    20   UNL    H1  967     0.033033      1.00800 ; qtot -1.207
   968   hc    20   UNL    H2  968     0.033033      1.00800 ; qtot -1.174
   969   hc    20   UNL    H3  969     0.033033      1.00800 ; qtot -1.141
   970   hc    20   UNL    H4  970     0.043700      1.00800 ; qtot -1.097
   971   hc    20   UNL    H5  971     0.033033      1.00800 ; qtot -1.064
   972   hc    20   UNL    H6  972     0.033033      1.00800 ; qtot -1.031
   973   hc    20   UNL    H7  973     0.033033      1.00800 ; qtot -0.998
   974   hc    20   UNL    H8  974     0.038950      1.00800 ; qtot -0.959
   975   hc    20   UNL    H9  975     0.038950      1.00800 ; qtot -0.920
   976   hc    20   UNL   H10  976     0.051200      1.00800 ; qtot -0.869
   977   hc    20   UNL   H11  977     0.032867      1.00800 ; qtot -0.836
   978   hc    20   UNL   H12  978     0.032867      1.00800 ; qtot -0.803
   979   hc    20   UNL   H13  979     0.032867      1.00800 ; qtot -0.770
   980   hc    20   UNL   H14  980     0.039450      1.00800 ; qtot -0.731
   981   hc    20   UNL   H15  981     0.039450      1.00800 ; qtot -0.691
   982   hc    20   UNL   H16  982     0.042700      1.00800 ; qtot -0.649
   983   hc    20   UNL   H17  983     0.033367      1.00800 ; qtot -0.615
   984   hc    20   UNL   H18  984     0.033367      1.00800 ; qtot -0.582
   985   hc    20   UNL   H19  985     0.033367      1.00800 ; qtot -0.548
   986   hc    20   UNL   H20  986     0.039450      1.00800 ; qtot -0.509
   987   hc    20   UNL   H21  987     0.039450      1.00800 ; qtot -0.470
   988   hc    20   UNL   H22  988     0.051200      1.00800 ; qtot -0.418
   989   hc    20   UNL   H23  989     0.032867      1.00800 ; qtot -0.386
   990   hc    20   UNL   H24  990     0.032867      1.00800 ; qtot -0.353
   991   hc    20   UNL   H25  991     0.032867      1.00800 ; qtot -0.320
   992   hc    20   UNL   H26  992     0.038950      1.00800 ; qtot -0.281
   993   hc    20   UNL   H27  993     0.038950      1.00800 ; qtot -0.242
   994   hc    20   UNL   H28  994     0.043700      1.00800 ; qtot -0.198
   995   hc    20   UNL   H29  995     0.033033      1.00800 ; qtot -0.165
   996   hc    20   UNL   H30  996     0.033033      1.00800 ; qtot -0.132
   997   hc    20   UNL   H31  997     0.033033      1.00800 ; qtot -0.099
   998   hc    20   UNL   H32  998     0.033033      1.00800 ; qtot -0.066
   999   hc    20   UNL   H33  999     0.033033      1.00800 ; qtot -0.033
  1000   hc    20   UNL   H34 1000     0.033033      1.00800 ; qtot -0.000

[ bonds ]
;   ai     aj funct   r             k
     1      2   1    1.5354e-01    1.9154e+05 ;     C1 - C2    
     1     17   1    1.0962e-01    2.8891e+05 ;     C1 - H1    
     1     18   1    1.0962e-01    2.8891e+05 ;     C1 - H2    
     1     19   1    1.0962e-01    2.8891e+05 ;     C1 - H3    
     2      3   1    1.5354e-01    1.9154e+05 ;     C2 - C3    
     2      4   1    1.5354e-01    1.9154e+05 ;     C2 - C4    
     2     20   1    1.0962e-01    2.8891e+05 ;     C2 - H4    
     3     21   1    1.0962e-01    2.8891e+05 ;     C3 - H5    
     3     22   1    1.0962e-01    2.8891e+05 ;     C3 - H6    
     3     23   1    1.0962e-01    2.8891e+05 ;     C3 - H7    
     4      5   1    1.5354e-01    1.9154e+05 ;     C4 - C5    
     4     24   1    1.0962e-01    2.8891e+05 ;     C4 - H8    
     4     25   1    1.0962e-01    2.8891e+05 ;     C4 - H9    
     5      6   1    1.5354e-01    1.9154e+05 ;     C5 - C6    
     5      7   1    1.5354e-01    1.9154e+05 ;     C5 - C7    
     5     26   1    1.0962e-01    2.8891e+05 ;     C5 - H10   
     6     27   1    1.0962e-01    2.8891e+05 ;     C6 - H11   
     6     28   1    1.0962e-01    2.8891e+05 ;     C6 - H12   
     6     29   1    1.0962e-01    2.8891e+05 ;     C6 - H13   
     7      8   1    1.5354e-01    1.9154e+05 ;     C7 - C8    
     7     30   1    1.0962e-01    2.8891e+05 ;     C7 - H14   
     7     31   1    1.0962e-01    2.8891e+05 ;     C7 - H15   
     8      9   1    1.5354e-01    1.9154e+05 ;     C8 - C9    
     8     10   1    1.5354e-01    1.9154e+05 ;     C8 - C10   
     8     32   1    1.0962e-01    2.8891e+05 ;     C8 - H16   
     9     33   1    1.0962e-01    2.8891e+05 ;     C9 - H17   
     9     34   1    1.0962e-01    2.8891e+05 ;     C9 - H18   
     9     35   1    1.0962e-01    2.8891e+05 ;     C9 - H19   
    10     11   1    1.5354e-01    1.9154e+05 ;    C10 - C11   
    10     36   1    1.0962e-01    2.8891e+05 ;    C10 - H20   
    10     37   1    1.0962e-01    2.8891e+05 ;    C10 - H21   
    11     12   1    1.5354e-01    1.9154e+05 ;    C11 - C12   
    11     13   1    1.5354e-01    1.9154e+05 ;    C11 - C13   
    11     38   1    1.0962e-01    2.8891e+05 ;    C11 - H22   
    12     39   1    1.0962e-01    2.8891e+05 ;    C12 - H23   
    12     40   1    1.0962e-01    2.8891e+05 ;    C12 - H24   
    12     41   1    1.0962e-01    2.8891e+05 ;    C12 - H25   
    13     14   1    1.5354e-01    1.9154e+05 ;    C13 - C14   
    13     42   1    1.0962e-01    2.8891e+05 ;    C13 - H26   
    13     43   1    1.0962e-01    2.8891e+05 ;    C13 - H27   
    14     15   1    1.5354e-01    1.9154e+05 ;    C14 - C15   
    14     16   1    1.5354e-01    1.9154e+05 ;    C14 - C16   
    14     44   1    1.0962e-01    2.8891e+05 ;    C14 - H28   
    15     45   1    1.0962e-01    2.8891e+05 ;    C15 - H29   
    15     46   1    1.0962e-01    2.8891e+05 ;    C15 - H30   
    15     47   1    1.0962e-01    2.8891e+05 ;    C15 - H31   
    16     48   1    1.0962e-01    2.8891e+05 ;    C16 - H32   
    16     49   1    1.0962e-01    2.8891e+05 ;    C16 - H33   
    16     50   1    1.0962e-01    2.8891e+05 ;    C16 - H34   
    51     52   1    1.5354e-01    1.9154e+05 ;     C1 - C2    
    51     67   1    1.0962e-01    2.8891e+05 ;     C1 - H1    
    51     68   1    1.0962e-01    2.8891e+05 ;     C1 - H2    
    51     69   1    1.0962e-01    2.8891e+05 ;     C1 - H3    
    52     53   1    1.5354e-01    1.9154e+05 ;     C2 - C3    
    52     54   1    1.5354e-01    1.9154e+05 ;     C2 - C4    
    52     70   1    1.0962e-01    2.8891e+05 ;     C2 - H4    
    53     71   1    1.0962e-01    2.8891e+05 ;     C3 - H5    
    53     72   1    1.0962e-01    2.8891e+05 ;     C3 - H6    
    53     73   1    1.0962e-01    2.8891e+05 ;     C3 - H7    
    54     55   1    1.5354e-01    1.9154e+05 ;     C4 - C5    
    54     74   1    1.0962e-01    2.8891e+05 ;     C4 - H8    
    54     75   1    1.0962e-01    2.8891e+05 ;     C4 - H9    
    55     56   1    1.5354e-01    1.9154e+05 ;     C5 - C6    
    55     57   1    1.5354e-01    1.9154e+05 ;     C5 - C7    
    55     76   1    1.0962e-01    2.8891e+05 ;     C5 - H10   
    56     77   1    1.0962e-01    2.8891e+05 ;     C6 - H11   
    56     78   1    1.0962e-01    2.8891e+05 ;     C6 - H12   
    56     79   1    1.0962e-01    2.8891e+05 ;     C6 - H13   
    57     58   1    1.5354e-01    1.9154e+05 ;     C7 - C8    
    57     80   1    1.0962e-01    2.8891e+05 ;     C7 - H14   
    57     81   1    1.0962e-01    2.8891e+05 ;     C7 - H15   
    58     59   1    1.5354e-01    1.9154e+05 ;     C8 - C9    
    58     60   1    1.5354e-01    1.9154e+05 ;     C8 - C10   
    58     82   1    1.0962e-01    2.8891e+05 ;     C8 - H16   
    59     83   1    1.0962e-01    2.8891e+05 ;     C9 - H17   
    59     84   1    1.0962e-01    2.8891e+05 ;     C9 - H18   
    59     85   1    1.0962e-01    2.8891e+05 ;     C9 - H19   
    60     61   1    1.5354e-01    1.9154e+05 ;    C10 - C11   
    60     86   1    1.0962e-01    2.8891e+05 ;    C10 - H20   
    60     87   1    1.0962e-01    2.8891e+05 ;    C10 - H21   
    61     62   1    1.5354e-01    1.9154e+05 ;    C11 - C12   
    61     63   1    1.5354e-01    1.9154e+05 ;    C11 - C13   
    61     88   1    1.0962e-01    2.8891e+05 ;    C11 - H22   
    62     89   1    1.0962e-01    2.8891e+05 ;    C12 - H23   
    62     90   1    1.0962e-01    2.8891e+05 ;    C12 - H24   
    62     91   1    1.0962e-01    2.8891e+05 ;    C12 - H25   
    63     64   1    1.5354e-01    1.9154e+05 ;    C13 - C14   
    63     92   1    1.0962e-01    2.8891e+05 ;    C13 - H26   
    63     93   1    1.0962e-01    2.8891e+05 ;    C13 - H27   
    64     65   1    1.5354e-01    1.9154e+05 ;    C14 - C15   
    64     66   1    1.5354e-01    1.9154e+05 ;    C14 - C16   
    64     94   1    1.0962e-01    2.8891e+05 ;    C14 - H28   
    65     95   1    1.0962e-01    2.8891e+05 ;    C15 - H29   
    65     96   1    1.0962e-01    2.8891e+05 ;    C15 - H30   
    65     97   1    1.0962e-01    2.8891e+05 ;    C15 - H31   
    66     98   1    1.0962e-01    2.8891e+05 ;    C16 - H32   
    66     99   1    1.0962e-01    2.8891e+05 ;    C16 - H33   
    66    100   1    1.0962e-01    2.8891e+05 ;    C16 - H34   
   101    102   1    1.5354e-01    1.9154e+05 ;     C1 - C2    
   101    117   1    1.0962e-01    2.8891e+05 ;     C1 - H1    
   101    118   1    1.0962e-01    2.8891e+05 ;     C1 - H2    
   101    119   1    1.0962e-01    2.8891e+05 ;     C1 - H3    
   102    103   1    1.5354e-01    1.9154e+05 ;     C2 - C3    
   102    104   1    1.5354e-01    1.9154e+05 ;     C2 - C4    
   102    120   1    1.0962e-01    2.8891e+05 ;     C2 - H4    
   103    121   1    1.0962e-01    2.8891e+05 ;     C3 - H5    
   103    122   1    1.0962e-01    2.8891e+05 ;     C3 - H6    
   103    123   1    1.0962e-01    2.8891e+05 ;     C3 - H7    
   104    105   1    1.5354e-01    1.9154e+05 ;     C4 - C5    
   104    124   1    1.0962e-01    2.8891e+05 ;     C4 - H8    
   104    125   1    1.0962e-01    2.8891e+05 ;     C4 - H9    
   105    106   1    1.5354e-01    1.9154e+05 ;     C5 - C6    
   105    107   1    1.5354e-01    1.9154e+05 ;     C5 - C7    
   105    126   1    1.0962e-01    2.8891e+05 ;     C5 - H10   
   106    127   1    1.0962e-01    2.8891e+05 ;     C6 - H11   
   106    128   1    1.0962e-01    2.8891e+05 ;     C6 - H12   
   106    129   1    1.0962e-01    2.8891e+05 ;     C6 - H13   
   107    108   1    1.5354e-01    1.9154e+05 ;     C7 - C8    
   107    130   1    1.0962e-01    2.8891e+05 ;     C7 - H14   
   107    131   1    1.0962e-01    2.8891e+05 ;     C7 - H15   
   108    109   1    1.5354e-01    1.9154e+05 ;     C8 - C9    
   108    110   1    1.5354e-01    1.9154e+05 ;     C8 - C10   
   108    132   1    1.0962e-01    2.8891e+05 ;     C8 - H16   
   109    133   1    1.0962e-01    2.8891e+05 ;     C9 - H17   
   109    134   1    1.0962e-01    2.8891e+05 ;     C9 - H18   
   109    135   1    1.0962e-01    2.8891e+05 ;     C9 - H19   
   110    111   1    1.5354e-01    1.9154e+05 ;    C10 - C11   
   110    136   1    1.0962e-01    2.8891e+05 ;    C10 - H20   
   110    137   1    1.0962e-01    2.8891e+05 ;    C10 - H21   
   111    112   1    1.5354e-01    1.9154e+05 ;    C11 - C12   
   111    113   1    1.5354e-01    1.9154e+05 ;    C11 - C13   
   111    138   1    1.0962e-01    2.8891e+05 ;    C11 - H22   
   112    139   1    1.0962e-01    2.8891e+05 ;    C12 - H23   
   112    140   1    1.0962e-01    2.8891e+05 ;    C12 - H24   
   112    141   1    1.0962e-01    2.8891e+05 ;    C12 - H25   
   113    114   1    1.5354e-01    1.9154e+05 ;    C13 - C14   
   113    142   1    1.0962e-01    2.8891e+05 ;    C13 - H26   
   113    143   1    1.0962e-01    2.8891e+05 ;    C13 - H27   
   114    115   1    1.5354e-01    1.9154e+05 ;    C14 - C15   
   114    116   1    1.5354e-01    1.9154e+05 ;    C14 - C16   
   114    144   1    1.0962e-01    2.8891e+05 ;    C14 - H28   
   115    145   1    1.0962e-01    2.8891e+05 ;    C15 - H29   
   115    146   1    1.0962e-01    2.8891e+05 ;    C15 - H30   
   115    147   1    1.0962e-01    2.8891e+05 ;    C15 - H31   
   116    148   1    1.0962e-01    2.8891e+05 ;    C16 - H32   
   116    149   1    1.0962e-01    2.8891e+05 ;    C16 - H33   
   116    150   1    1.0962e-01    2.8891e+05 ;    C16 - H34   
   151    152   1    1.5354e-01    1.9154e+05 ;     C1 - C2    
   151    167   1    1.0962e-01    2.8891e+05 ;     C1 - H1    
   151    168   1    1.0962e-01    2.8891e+05 ;     C1 - H2    
   151    169   1    1.0962e-01    2.8891e+05 ;     C1 - H3    
   152    153   1    1.5354e-01    1.9154e+05 ;     C2 - C3    
   152    154   1    1.5354e-01    1.9154e+05 ;     C2 - C4    
   152    170   1    1.0962e-01    2.8891e+05 ;     C2 - H4    
   153    171   1    1.0962e-01    2.8891e+05 ;     C3 - H5    
   153    172   1    1.0962e-01    2.8891e+05 ;     C3 - H6    
   153    173   1    1.0962e-01    2.8891e+05 ;     C3 - H7    
   154    155   1    1.5354e-01    1.9154e+05 ;     C4 - C5    
   154    174   1    1.0962e-01    2.8891e+05 ;     C4 - H8    
   154    175   1    1.0962e-01    2.8891e+05 ;     C4 - H9    
   155    156   1    1.5354e-01    1.9154e+05 ;     C5 - C6    
   155    157   1    1.5354e-01    1.9154e+05 ;     C5 - C7    
   155    176   1    1.0962e-01    2.8891e+05 ;     C5 - H10   
   156    177   1    1.0962e-01    2.8891e+05 ;     C6 - H11   
   156    178   1    1.0962e-01    2.8891e+05 ;     C6 - H12   
   156    179   1    1.0962e-01    2.8891e+05 ;     C6 - H13   
   157    158   1    1.5354e-01    1.9154e+05 ;     C7 - C8    
   157    180   1    1.0962e-01    2.8891e+05 ;     C7 - H14   
   157    181   1    1.0962e-01    2.8891e+05 ;     C7 - H15   
   158    159   1    1.5354e-01    1.9154e+05 ;     C8 - C9    
   158    160   1    1.5354e-01    1.9154e+05 ;     C8 - C10   
   158    182   1    1.0962e-01    2.8891e+05 ;     C8 - H16   
   159    183   1    1.0962e-01    2.8891e+05 ;     C9 - H17   
   159    184   1    1.0962e-01    2.8891e+05 ;     C9 - H18   
   159    185   1    1.0962e-01    2.8891e+05 ;     C9 - H19   
   160    161   1    1.5354e-01    1.9154e+05 ;    C10 - C11   
   160    186   1    1.0962e-01    2.8891e+05 ;    C10 - H20   
   160    187   1    1.0962e-01    2.8891e+05 ;    C10 - H21   
   161    162   1    1.5354e-01    1.9154e+05 ;    C11 - C12   
   161    163   1    1.5354e-01    1.9154e+05 ;    C11 - C13   
   161    188   1    1.0962e-01    2.8891e+05 ;    C11 - H22   
   162    189   1    1.0962e-01    2.8891e+05 ;    C12 - H23   
   162    190   1    1.0962e-01    2.8891e+05 ;    C12 - H24   
   162    191   1    1.0962e-01    2.8891e+05 ;    C12 - H25   
   163    164   1    1.5354e-01    1.9154e+05 ;    C13 - C14   
   163    192   1    1.0962e-01    2.8891e+05 ;    C13 - H26   
   163    193   1    1.0962e-01    2.8891e+05 ;    C13 - H27   
   164    165   1    1.5354e-01    1.9154e+05 ;    C14 - C15   
   164    166   1    1.5354e-01    1.9154e+05 ;    C14 - C16   
   164    194   1    1.0962e-01    2.8891e+05 ;    C14 - H28   
   165    195   1    1.0962e-01    2.8891e+05 ;    C15 - H29   
   165    196   1    1.0962e-01    2.8891e+05 ;    C15 - H30   
   165    197   1    1.0962e-01    2.8891e+05 ;    C15 - H31   
   166    198   1    1.0962e-01    2.8891e+05 ;    C16 - H32   
   166    199   1    1.0962e-01    2.8891e+05 ;    C16 - H33   
   166    200   1    1.0962e-01    2.8891e+05 ;    C16 - H34   
   201    202   1    1.5354e-01    1.9154e+05 ;     C1 - C2    
   201    217   1    1.0962e-01    2.8891e+05 ;     C1 - H1    
   201    218   1    1.0962e-01    2.8891e+05 ;     C1 - H2    
   201    219   1    1.0962e-01    2.8891e+05 ;     C1 - H3    
   202    203   1    1.5354e-01    1.9154e+05 ;     C2 - C3    
   202    204   1    1.5354e-01    1.9154e+05 ;     C2 - C4    
   202    220   1    1.0962e-01    2.8891e+05 ;     C2 - H4    
   203    221   1    1.0962e-01    2.8891e+05 ;     C3 - H5    
   203    222   1    1.0962e-01    2.8891e+05 ;     C3 - H6    
   203    223   1    1.0962e-01    2.8891e+05 ;     C3 - H7    
   204    205   1    1.5354e-01    1.9154e+05 ;     C4 - C5    
   204    224   1    1.0962e-01    2.8891e+05 ;     C4 - H8    
   204    225   1    1.0962e-01    2.8891e+05 ;     C4 - H9    
   205    206   1    1.5354e-01    1.9154e+05 ;     C5 - C6    
   205    207   1    1.5354e-01    1.9154e+05 ;     C5 - C7    
   205    226   1    1.0962e-01    2.8891e+05 ;     C5 - H10   
   206    227   1    1.0962e-01    2.8891e+05 ;     C6 - H11   
   206    228   1    1.0962e-01    2.8891e+05 ;     C6 - H12   
   206    229   1    1.0962e-01    2.8891e+05 ;     C6 - H13   
   207    208   1    1.5354e-01    1.9154e+05 ;     C7 - C8    
   207    230   1    1.0962e-01    2.8891e+05 ;     C7 - H14   
   207    231   1    1.0962e-01    2.8891e+05 ;     C7 - H15   
   208    209   1    1.5354e-01    1.9154e+05 ;     C8 - C9    
   208    210   1    1.5354e-01    1.9154e+05 ;     C8 - C10   
   208    232   1    1.0962e-01    2.8891e+05 ;     C8 - H16   
   209    233   1    1.0962e-01    2.8891e+05 ;     C9 - H17   
   209    234   1    1.0962e-01    2.8891e+05 ;     C9 - H18   
   209    235   1    1.0962e-01    2.8891e+05 ;     C9 - H19   
   210    211   1    1.5354e-01    1.9154e+05 ;    C10 - C11   
   210    236   1    1.0962e-01    2.8891e+05 ;    C10 - H20   
   210    237   1    1.0962e-01    2.8891e+05 ;    C10 - H21   
   211    212   1    1.5354e-01    1.9154e+05 ;    C11 - C12   
   211    213   1    1.5354e-01    1.9154e+05 ;    C11 - C13   
   211    238   1    1.0962e-01    2.8891e+05 ;    C11 - H22   
   212    239   1    1.0962e-01    2.8891e+05 ;    C12 - H23   
   212    240   1    1.0962e-01    2.8891e+05 ;    C12 - H24   
   212    241   1    1.0962e-01    2.8891e+05 ;    C12 - H25   
   213    214   1    1.5354e-01    1.9154e+05 ;    C13 - C14   
   213    242   1    1.0962e-01    2.8891e+05 ;    C13 - H26   
   213    243   1    1.0962e-01    2.8891e+05 ;    C13 - H27   
   214    215   1    1.5354e-01    1.9154e+05 ;    C14 - C15   
   214    216   1    1.5354e-01    1.9154e+05 ;    C14 - C16   
   214    244   1    1.0962e-01    2.8891e+05 ;    C14 - H28   
   215    245   1    1.0962e-01    2.8891e+05 ;    C15 - H29   
   215    246   1    1.0962e-01    2.8891e+05 ;    C15 - H30   
   215    247   1    1.0962e-01    2.8891e+05 ;    C15 - H31   
   216    248   1    1.0962e-01    2.8891e+05 ;    C16 - H32   
   216    249   1    1.0962e-01    2.8891e+05 ;    C16 - H33   
   216    250   1    1.0962e-01    2.8891e+05 ;    C16 - H34   
   251    252   1    1.5354e-01    1.9154e+05 ;     C1 - C2    
   251    267   1    1.0962e-01    2.8891e+05 ;     C1 - H1    
   251    268   1    1.0962e-01    2.8891e+05 ;     C1 - H2    
   251    269   1    1.0962e-01    2.8891e+05 ;     C1 - H3    
   252    253   1    1.5354e-01    1.9154e+05 ;     C2 - C3    
   252    254   1    1.5354e-01    1.9154e+05 ;     C2 - C4    
   252    270   1    1.0962e-01    2.8891e+05 ;     C2 - H4    
   253    271   1    1.0962e-01    2.8891e+05 ;     C3 - H5    
   253    272   1    1.0962e-01    2.8891e+05 ;     C3 - H6    
   253    273   1    1.0962e-01    2.8891e+05 ;     C3 - H7    
   254    255   1    1.5354e-01    1.9154e+05 ;     C4 - C5    
   254    274   1    1.0962e-01    2.8891e+05 ;     C4 - H8    
   254    275   1    1.0962e-01    2.8891e+05 ;     C4 - H9    
   255    256   1    1.5354e-01    1.9154e+05 ;     C5 - C6    
   255    257   1    1.5354e-01    1.9154e+05 ;     C5 - C7    
   255    276   1    1.0962e-01    2.8891e+05 ;     C5 - H10   
   256    277   1    1.0962e-01    2.8891e+05 ;     C6 - H11   
   256    278   1    1.0962e-01    2.8891e+05 ;     C6 - H12   
   256    279   1    1.0962e-01    2.8891e+05 ;     C6 - H13   
   257    258   1    1.5354e-01    1.9154e+05 ;     C7 - C8    
   257    280   1    1.0962e-01    2.8891e+05 ;     C7 - H14   
   257    281   1    1.0962e-01    2.8891e+05 ;     C7 - H15   
   258    259   1    1.5354e-01    1.9154e+05 ;     C8 - C9    
   258    260   1    1.5354e-01    1.9154e+05 ;     C8 - C10   
   258    282   1    1.0962e-01    2.8891e+05 ;     C8 - H16   
   259    283   1    1.0962e-01    2.8891e+05 ;     C9 - H17   
   259    284   1    1.0962e-01    2.8891e+05 ;     C9 - H18   
   259    285   1    1.0962e-01    2.8891e+05 ;     C9 - H19   
   260    261   1    1.5354e-01    1.9154e+05 ;    C10 - C11   
   260    286   1    1.0962e-01    2.8891e+05 ;    C10 - H20   
   260    287   1    1.0962e-01    2.8891e+05 ;    C10 - H21   
   261    262   1    1.5354e-01    1.9154e+05 ;    C11 - C12   
   261    263   1    1.5354e-01    1.9154e+05 ;    C11 - C13   
   261    288   1    1.0962e-01    2.8891e+05 ;    C11 - H22   
   262    289   1    1.0962e-01    2.8891e+05 ;    C12 - H23   
   262    290   1    1.0962e-01    2.8891e+05 ;    C12 - H24   
   262    291   1    1.0962e-01    2.8891e+05 ;    C12 - H25   
   263    264   1    1.5354e-01    1.9154e+05 ;    C13 - C14   
   263    292   1    1.0962e-01    2.8891e+05 ;    C13 - H26   
   263    293   1    1.0962e-01    2.8891e+05 ;    C13 - H27   
   264    265   1    1.5354e-01    1.9154e+05 ;    C14 - C15   
   264    266   1    1.5354e-01    1.9154e+05 ;    C14 - C16   
   264    294   1    1.0962e-01    2.8891e+05 ;    C14 - H28   
   265    295   1    1.0962e-01    2.8891e+05 ;    C15 - H29   
   265    296   1    1.0962e-01    2.8891e+05 ;    C15 - H30   
   265    297   1    1.0962e-01    2.8891e+05 ;    C15 - H31   
   266    298   1    1.0962e-01    2.8891e+05 ;    C16 - H32   
   266    299   1    1.0962e-01    2.8891e+05 ;    C16 - H33   
   266    300   1    1.0962e-01    2.8891e+05 ;    C16 - H34   
   301    302   1    1.5354e-01    1.9154e+05 ;     C1 - C2    
   301    317   1    1.0962e-01    2.8891e+05 ;     C1 - H1    
   301    318   1    1.0962e-01    2.8891e+05 ;     C1 - H2    
   301    319   1    1.0962e-01    2.8891e+05 ;     C1 - H3    
   302    303   1    1.5354e-01    1.9154e+05 ;     C2 - C3    
   302    304   1    1.5354e-01    1.9154e+05 ;     C2 - C4    
   302    320   1    1.0962e-01    2.8891e+05 ;     C2 - H4    
   303    321   1    1.0962e-01    2.8891e+05 ;     C3 - H5    
   303    322   1    1.0962e-01    2.8891e+05 ;     C3 - H6    
   303    323   1    1.0962e-01    2.8891e+05 ;     C3 - H7    
   304    305   1    1.5354e-01    1.9154e+05 ;     C4 - C5    
   304    324   1    1.0962e-01    2.8891e+05 ;     C4 - H8    
   304    325   1    1.0962e-01    2.8891e+05 ;     C4 - H9    
   305    306   1    1.5354e-01    1.9154e+05 ;     C5 - C6    
   305    307   1    1.5354e-01    1.9154e+05 ;     C5 - C7    
   305    326   1    1.0962e-01    2.8891e+05 ;     C5 - H10   
   306    327   1    1.0962e-01    2.8891e+05 ;     C6 - H11   
   306    328   1    1.0962e-01    2.8891e+05 ;     C6 - H12   
   306    329   1    1.0962e-01    2.8891e+05 ;     C6 - H13   
   307    308   1    1.5354e-01    1.9154e+05 ;     C7 - C8    
   307    330   1    1.0962e-01    2.8891e+05 ;     C7 - H14   
   307    331   1    1.0962e-01    2.8891e+05 ;     C7 - H15   
   308    309   1    1.5354e-01    1.9154e+05 ;     C8 - C9    
   308    310   1    1.5354e-01    1.9154e+05 ;     C8 - C10   
   308    332   1    1.0962e-01    2.8891e+05 ;     C8 - H16   
   309    333   1    1.0962e-01    2.8891e+05 ;     C9 - H17   
   309    334   1    1.0962e-01    2.8891e+05 ;     C9 - H18   
   309    335   1    1.0962e-01    2.8891e+05 ;     C9 - H19   
   310    311   1    1.5354e-01    1.9154e+05 ;    C10 - C11   
   310    336   1    1.0962e-01    2.8891e+05 ;    C10 - H20   
   310    337   1    1.0962e-01    2.8891e+05 ;    C10 - H21   
   311    312   1    1.5354e-01    1.9154e+05 ;    C11 - C12   
   311    313   1    1.5354e-01    1.9154e+05 ;    C11 - C13   
   311    338   1    1.0962e-01    2.8891e+05 ;    C11 - H22   
   312    339   1    1.0962e-01    2.8891e+05 ;    C12 - H23   
   312    340   1    1.0962e-01    2.8891e+05 ;    C12 - H24   
   312    341   1    1.0962e-01    2.8891e+05 ;    C12 - H25   
   313    314   1    1.5354e-01    1.9154e+05 ;    C13 - C14   
   313    342   1    1.0962e-01    2.8891e+05 ;    C13 - H26   
   313    343   1    1.0962e-01    2.8891e+05 ;    C13 - H27   
   314    315   1    1.5354e-01    1.9154e+05 ;    C14 - C15   
   314    316   1    1.5354e-01    1.9154e+05 ;    C14 - C16   
   314    344   1    1.0962e-01    2.8891e+05 ;    C14 - H28   
   315    345   1    1.0962e-01    2.8891e+05 ;    C15 - H29   
   315    346   1    1.0962e-01    2.8891e+05 ;    C15 - H30   
   315    347   1    1.0962e-01    2.8891e+05 ;    C15 - H31   
   316    348   1    1.0962e-01    2.8891e+05 ;    C16 - H32   
   316    349   1    1.0962e-01    2.8891e+05 ;    C16 - H33   
   316    350   1    1.0962e-01    2.8891e+05 ;    C16 - H34   
   351    352   1    1.5354e-01    1.9154e+05 ;     C1 - C2    
   351    367   1    1.0962e-01    2.8891e+05 ;     C1 - H1    
   351    368   1    1.0962e-01    2.8891e+05 ;     C1 - H2    
   351    369   1    1.0962e-01    2.8891e+05 ;     C1 - H3    
   352    353   1    1.5354e-01    1.9154e+05 ;     C2 - C3    
   352    354   1    1.5354e-01    1.9154e+05 ;     C2 - C4    
   352    370   1    1.0962e-01    2.8891e+05 ;     C2 - H4    
   353    371   1    1.0962e-01    2.8891e+05 ;     C3 - H5    
   353    372   1    1.0962e-01    2.8891e+05 ;     C3 - H6    
   353    373   1    1.0962e-01    2.8891e+05 ;     C3 - H7    
   354    355   1    1.5354e-01    1.9154e+05 ;     C4 - C5    
   354    374   1    1.0962e-01    2.8891e+05 ;     C4 - H8    
   354    375   1    1.0962e-01    2.8891e+05 ;     C4 - H9    
   355    356   1    1.5354e-01    1.9154e+05 ;     C5 - C6    
   355    357   1    1.5354e-01    1.9154e+05 ;     C5 - C7    
   355    376   1    1.0962e-01    2.8891e+05 ;     C5 - H10   
   356    377   1    1.0962e-01    2.8891e+05 ;     C6 - H11   
   356    378   1    1.0962e-01    2.8891e+05 ;     C6 - H12   
   356    379   1    1.0962e-01    2.8891e+05 ;     C6 - H13   
   357    358   1    1.5354e-01    1.9154e+05 ;     C7 - C8    
   357    380   1    1.0962e-01    2.8891e+05 ;     C7 - H14   
   357    381   1    1.0962e-01    2.8891e+05 ;     C7 - H15   
   358    359   1    1.5354e-01    1.9154e+05 ;     C8 - C9    
   358    360   1    1.5354e-01    1.9154e+05 ;     C8 - C10   
   358    382   1    1.0962e-01    2.8891e+05 ;     C8 - H16   
   359    383   1    1.0962e-01    2.8891e+05 ;     C9 - H17   
   359    384   1    1.0962e-01    2.8891e+05 ;     C9 - H18   
   359    385   1    1.0962e-01    2.8891e+05 ;     C9 - H19   
   360    361   1    1.5354e-01    1.9154e+05 ;    C10 - C11   
   360    386   1    1.0962e-01    2.8891e+05 ;    C10 - H20   
   360    387   1    1.0962e-01    2.8891e+05 ;    C10 - H21   
   361    362   1    1.5354e-01    1.9154e+05 ;    C11 - C12   
   361    363   1    1.5354e-01    1.9154e+05 ;    C11 - C13   
   361    388   1    1.0962e-01    2.8891e+05 ;    C11 - H22   
   362    389   1    1.0962e-01    2.8891e+05 ;    C12 - H23   
   362    390   1    1.0962e-01    2.8891e+05 ;    C12 - H24   
   362    391   1    1.0962e-01    2.8891e+05 ;    C12 - H25   
   363    364   1    1.5354e-01    1.9154e+05 ;    C13 - C14   
   363    392   1    1.0962e-01    2.8891e+05 ;    C13 - H26   
   363    393   1    1.0962e-01    2.8891e+05 ;    C13 - H27   
   364    365   1    1.5354e-01    1.9154e+05 ;    C14 - C15   
   364    366   1    1.5354e-01    1.9154e+05 ;    C14 - C16   
   364    394   1    1.0962e-01    2.8891e+05 ;    C14 - H28   
   365    395   1    1.0962e-01    2.8891e+05 ;    C15 - H29   
   365    396   1    1.0962e-01    2.8891e+05 ;    C15 - H30   
   365    397   1    1.0962e-01    2.8891e+05 ;    C15 - H31   
   366    398   1    1.0962e-01    2.8891e+05 ;    C16 - H32   
   366    399   1    1.0962e-01    2.8891e+05 ;    C16 - H33   
   366    400   1    1.0962e-01    2.8891e+05 ;    C16 - H34   
   401    402   1    1.5354e-01    1.9154e+05 ;     C1 - C2    
   401    417   1    1.0962e-01    2.8891e+05 ;     C1 - H1    
   401    418   1    1.0962e-01    2.8891e+05 ;     C1 - H2    
   401    419   1    1.0962e-01    2.8891e+05 ;     C1 - H3    
   402    403   1    1.5354e-01    1.9154e+05 ;     C2 - C3    
   402    404   1    1.5354e-01    1.9154e+05 ;     C2 - C4    
   402    420   1    1.0962e-01    2.8891e+05 ;     C2 - H4    
   403    421   1    1.0962e-01    2.8891e+05 ;     C3 - H5    
   403    422   1    1.0962e-01    2.8891e+05 ;     C3 - H6    
   403    423   1    1.0962e-01    2.8891e+05 ;     C3 - H7    
   404    405   1    1.5354e-01    1.9154e+05 ;     C4 - C5    
   404    424   1    1.0962e-01    2.8891e+05 ;     C4 - H8    
   404    425   1    1.0962e-01    2.8891e+05 ;     C4 - H9    
   405    406   1    1.5354e-01    1.9154e+05 ;     C5 - C6    
   405    407   1    1.5354e-01    1.9154e+05 ;     C5 - C7    
   405    426   1    1.0962e-01    2.8891e+05 ;     C5 - H10   
   406    427   1    1.0962e-01    2.8891e+05 ;     C6 - H11   
   406    428   1    1.0962e-01    2.8891e+05 ;     C6 - H12   
   406    429   1    1.0962e-01    2.8891e+05 ;     C6 - H13   
   407    408   1    1.5354e-01    1.9154e+05 ;     C7 - C8    
   407    430   1    1.0962e-01    2.8891e+05 ;     C7 - H14   
   407    431   1    1.0962e-01    2.8891e+05 ;     C7 - H15   
   408    409   1    1.5354e-01    1.9154e+05 ;     C8 - C9    
   408    410   1    1.5354e-01    1.9154e+05 ;     C8 - C10   
   408    432   1    1.0962e-01    2.8891e+05 ;     C8 - H16   
   409    433   1    1.0962e-01    2.8891e+05 ;     C9 - H17   
   409    434   1    1.0962e-01    2.8891e+05 ;     C9 - H18   
   409    435   1    1.0962e-01    2.8891e+05 ;     C9 - H19   
   410    411   1    1.5354e-01    1.9154e+05 ;    C10 - C11   
   410    436   1    1.0962e-01    2.8891e+05 ;    C10 - H20   
   410    437   1    1.0962e-01    2.8891e+05 ;    C10 - H21   
   411    412   1    1.5354e-01    1.9154e+05 ;    C11 - C12   
   411    413   1    1.5354e-01    1.9154e+05 ;    C11 - C13   
   411    438   1    1.0962e-01    2.8891e+05 ;    C11 - H22   
   412    439   1    1.0962e-01    2.8891e+05 ;    C12 - H23   
   412    440   1    1.0962e-01    2.8891e+05 ;    C12 - H24   
   412    441   1    1.0962e-01    2.8891e+05 ;    C12 - H25   
   413    414   1    1.5354e-01    1.9154e+05 ;    C13 - C14   
   413    442   1    1.0962e-01    2.8891e+05 ;    C13 - H26   
   413    443   1    1.0962e-01    2.8891e+05 ;    C13 - H27   
   414    415   1    1.5354e-01    1.9154e+05 ;    C14 - C15   
   414    416   1    1.5354e-01    1.9154e+05 ;    C14 - C16   
   414    444   1    1.0962e-01    2.8891e+05 ;    C14 - H28   
   415    445   1    1.0962e-01    2.8891e+05 ;    C15 - H29   
   415    446   1    1.0962e-01    2.8891e+05 ;    C15 - H30   
   415    447   1    1.0962e-01    2.8891e+05 ;    C15 - H31   
   416    448   1    1.0962e-01    2.8891e+05 ;    C16 - H32   
   416    449   1    1.0962e-01    2.8891e+05 ;    C16 - H33   
   416    450   1    1.0962e-01    2.8891e+05 ;    C16 - H34   
   451    452   1    1.5354e-01    1.9154e+05 ;     C1 - C2    
   451    467   1    1.0962e-01    2.8891e+05 ;     C1 - H1    
   451    468   1    1.0962e-01    2.8891e+05 ;     C1 - H2    
   451    469   1    1.0962e-01    2.8891e+05 ;     C1 - H3    
   452    453   1    1.5354e-01    1.9154e+05 ;     C2 - C3    
   452    454   1    1.5354e-01    1.9154e+05 ;     C2 - C4    
   452    470   1    1.0962e-01    2.8891e+05 ;     C2 - H4    
   453    471   1    1.0962e-01    2.8891e+05 ;     C3 - H5    
   453    472   1    1.0962e-01    2.8891e+05 ;     C3 - H6    
   453    473   1    1.0962e-01    2.8891e+05 ;     C3 - H7    
   454    455   1    1.5354e-01    1.9154e+05 ;     C4 - C5    
   454    474   1    1.0962e-01    2.8891e+05 ;     C4 - H8    
   454    475   1    1.0962e-01    2.8891e+05 ;     C4 - H9    
   455    456   1    1.5354e-01    1.9154e+05 ;     C5 - C6    
   455    457   1    1.5354e-01    1.9154e+05 ;     C5 - C7    
   455    476   1    1.0962e-01    2.8891e+05 ;     C5 - H10   
   456    477   1    1.0962e-01    2.8891e+05 ;     C6 - H11   
   456    478   1    1.0962e-01    2.8891e+05 ;     C6 - H12   
   456    479   1    1.0962e-01    2.8891e+05 ;     C6 - H13   
   457    458   1    1.5354e-01    1.9154e+05 ;     C7 - C8    
   457    480   1    1.0962e-01    2.8891e+05 ;     C7 - H14   
   457    481   1    1.0962e-01    2.8891e+05 ;     C7 - H15   
   458    459   1    1.5354e-01    1.9154e+05 ;     C8 - C9    
   458    460   1    1.5354e-01    1.9154e+05 ;     C8 - C10   
   458    482   1    1.0962e-01    2.8891e+05 ;     C8 - H16   
   459    483   1    1.0962e-01    2.8891e+05 ;     C9 - H17   
   459    484   1    1.0962e-01    2.8891e+05 ;     C9 - H18   
   459    485   1    1.0962e-01    2.8891e+05 ;     C9 - H19   
   460    461   1    1.5354e-01    1.9154e+05 ;    C10 - C11   
   460    486   1    1.0962e-01    2.8891e+05 ;    C10 - H20   
   460    487   1    1.0962e-01    2.8891e+05 ;    C10 - H21   
   461    462   1    1.5354e-01    1.9154e+05 ;    C11 - C12   
   461    463   1    1.5354e-01    1.9154e+05 ;    C11 - C13   
   461    488   1    1.0962e-01    2.8891e+05 ;    C11 - H22   
   462    489   1    1.0962e-01    2.8891e+05 ;    C12 - H23   
   462    490   1    1.0962e-01    2.8891e+05 ;    C12 - H24   
   462    491   1    1.0962e-01    2.8891e+05 ;    C12 - H25   
   463    464   1    1.5354e-01    1.9154e+05 ;    C13 - C14   
   463    492   1    1.0962e-01    2.8891e+05 ;    C13 - H26   
   463    493   1    1.0962e-01    2.8891e+05 ;    C13 - H27   
   464    465   1    1.5354e-01    1.9154e+05 ;    C14 - C15   
   464    466   1    1.5354e-01    1.9154e+05 ;    C14 - C16   
   464    494   1    1.0962e-01    2.8891e+05 ;    C14 - H28   
   465    495   1    1.0962e-01    2.8891e+05 ;    C15 - H29   
   465    496   1    1.0962e-01    2.8891e+05 ;    C15 - H30   
   465    497   1    1.0962e-01    2.8891e+05 ;    C15 - H31   
   466    498   1    1.0962e-01    2.8891e+05 ;    C16 - H32   
   466    499   1    1.0962e-01    2.8891e+05 ;    C16 - H33   
   466    500   1    1.0962e-01    2.8891e+05 ;    C16 - H34   
   501    502   1    1.5354e-01    1.9154e+05 ;     C1 - C2    
   501    517   1    1.0962e-01    2.8891e+05 ;     C1 - H1    
   501    518   1    1.0962e-01    2.8891e+05 ;     C1 - H2    
   501    519   1    1.0962e-01    2.8891e+05 ;     C1 - H3    
   502    503   1    1.5354e-01    1.9154e+05 ;     C2 - C3    
   502    504   1    1.5354e-01    1.9154e+05 ;     C2 - C4    
   502    520   1    1.0962e-01    2.8891e+05 ;     C2 - H4    
   503    521   1    1.0962e-01    2.8891e+05 ;     C3 - H5    
   503    522   1    1.0962e-01    2.8891e+05 ;     C3 - H6    
   503    523   1    1.0962e-01    2.8891e+05 ;     C3 - H7    
   504    505   1    1.5354e-01    1.9154e+05 ;     C4 - C5    
   504    524   1    1.0962e-01    2.8891e+05 ;     C4 - H8    
   504    525   1    1.0962e-01    2.8891e+05 ;     C4 - H9    
   505    506   1    1.5354e-01    1.9154e+05 ;     C5 - C6    
   505    507   1    1.5354e-01    1.9154e+05 ;     C5 - C7    
   505    526   1    1.0962e-01    2.8891e+05 ;     C5 - H10   
   506    527   1    1.0962e-01    2.8891e+05 ;     C6 - H11   
   506    528   1    1.0962e-01    2.8891e+05 ;     C6 - H12   
   506    529   1    1.0962e-01    2.8891e+05 ;     C6 - H13   
   507    508   1    1.5354e-01    1.9154e+05 ;     C7 - C8    
   507    530   1    1.0962e-01    2.8891e+05 ;     C7 - H14   
   507    531   1    1.0962e-01    2.8891e+05 ;     C7 - H15   
   508    509   1    1.5354e-01    1.9154e+05 ;     C8 - C9    
   508    510   1    1.5354e-01    1.9154e+05 ;     C8 - C10   
   508    532   1    1.0962e-01    2.8891e+05 ;     C8 - H16   
   509    533   1    1.0962e-01    2.8891e+05 ;     C9 - H17   
   509    534   1    1.0962e-01    2.8891e+05 ;     C9 - H18   
   509    535   1    1.0962e-01    2.8891e+05 ;     C9 - H19   
   510    511   1    1.5354e-01    1.9154e+05 ;    C10 - C11   
   510    536   1    1.0962e-01    2.8891e+05 ;    C10 - H20   
   510    537   1    1.0962e-01    2.8891e+05 ;    C10 - H21   
   511    512   1    1.5354e-01    1.9154e+05 ;    C11 - C12   
   511    513   1    1.5354e-01    1.9154e+05 ;    C11 - C13   
   511    538   1    1.0962e-01    2.8891e+05 ;    C11 - H22   
   512    539   1    1.0962e-01    2.8891e+05 ;    C12 - H23   
   512    540   1    1.0962e-01    2.8891e+05 ;    C12 - H24   
   512    541   1    1.0962e-01    2.8891e+05 ;    C12 - H25   
   513    514   1    1.5354e-01    1.9154e+05 ;    C13 - C14   
   513    542   1    1.0962e-01    2.8891e+05 ;    C13 - H26   
   513    543   1    1.0962e-01    2.8891e+05 ;    C13 - H27   
   514    515   1    1.5354e-01    1.9154e+05 ;    C14 - C15   
   514    516   1    1.5354e-01    1.9154e+05 ;    C14 - C16   
   514    544   1    1.0962e-01    2.8891e+05 ;    C14 - H28   
   515    545   1    1.0962e-01    2.8891e+05 ;    C15 - H29   
   515    546   1    1.0962e-01    2.8891e+05 ;    C15 - H30   
   515    547   1    1.0962e-01    2.8891e+05 ;    C15 - H31   
   516    548   1    1.0962e-01    2.8891e+05 ;    C16 - H32   
   516    549   1    1.0962e-01    2.8891e+05 ;    C16 - H33   
   516    550   1    1.0962e-01    2.8891e+05 ;    C16 - H34   
   551    552   1    1.5354e-01    1.9154e+05 ;     C1 - C2    
   551    567   1    1.0962e-01    2.8891e+05 ;     C1 - H1    
   551    568   1    1.0962e-01    2.8891e+05 ;     C1 - H2    
   551    569   1    1.0962e-01    2.8891e+05 ;     C1 - H3    
   552    553   1    1.5354e-01    1.9154e+05 ;     C2 - C3    
   552    554   1    1.5354e-01    1.9154e+05 ;     C2 - C4    
   552    570   1    1.0962e-01    2.8891e+05 ;     C2 - H4    
   553    571   1    1.0962e-01    2.8891e+05 ;     C3 - H5    
   553    572   1    1.0962e-01    2.8891e+05 ;     C3 - H6    
   553    573   1    1.0962e-01    2.8891e+05 ;     C3 - H7    
   554    555   1    1.5354e-01    1.9154e+05 ;     C4 - C5    
   554    574   1    1.0962e-01    2.8891e+05 ;     C4 - H8    
   554    575   1    1.0962e-01    2.8891e+05 ;     C4 - H9    
   555    556   1    1.5354e-01    1.9154e+05 ;     C5 - C6    
   555    557   1    1.5354e-01    1.9154e+05 ;     C5 - C7    
   555    576   1    1.0962e-01    2.8891e+05 ;     C5 - H10   
   556    577   1    1.0962e-01    2.8891e+05 ;     C6 - H11   
   556    578   1    1.0962e-01    2.8891e+05 ;     C6 - H12   
   556    579   1    1.0962e-01    2.8891e+05 ;     C6 - H13   
   557    558   1    1.5354e-01    1.9154e+05 ;     C7 - C8    
   557    580   1    1.0962e-01    2.8891e+05 ;     C7 - H14   
   557    581   1    1.0962e-01    2.8891e+05 ;     C7 - H15   
   558    559   1    1.5354e-01    1.9154e+05 ;     C8 - C9    
   558    560   1    1.5354e-01    1.9154e+05 ;     C8 - C10   
   558    582   1    1.0962e-01    2.8891e+05 ;     C8 - H16   
   559    583   1    1.0962e-01    2.8891e+05 ;     C9 - H17   
   559    584   1    1.0962e-01    2.8891e+05 ;     C9 - H18   
   559    585   1    1.0962e-01    2.8891e+05 ;     C9 - H19   
   560    561   1    1.5354e-01    1.9154e+05 ;    C10 - C11   
   560    586   1    1.0962e-01    2.8891e+05 ;    C10 - H20   
   560    587   1    1.0962e-01    2.8891e+05 ;    C10 - H21   
   561    562   1    1.5354e-01    1.9154e+05 ;    C11 - C12   
   561    563   1    1.5354e-01    1.9154e+05 ;    C11 - C13   
   561    588   1    1.0962e-01    2.8891e+05 ;    C11 - H22   
   562    589   1    1.0962e-01    2.8891e+05 ;    C12 - H23   
   562    590   1    1.0962e-01    2.8891e+05 ;    C12 - H24   
   562    591   1    1.0962e-01    2.8891e+05 ;    C12 - H25   
   563    564   1    1.5354e-01    1.9154e+05 ;    C13 - C14   
   563    592   1    1.0962e-01    2.8891e+05 ;    C13 - H26   
   563    593   1    1.0962e-01    2.8891e+05 ;    C13 - H27   
   564    565   1    1.5354e-01    1.9154e+05 ;    C14 - C15   
   564    566   1    1.5354e-01    1.9154e+05 ;    C14 - C16   
   564    594   1    1.0962e-01    2.8891e+05 ;    C14 - H28   
   565    595   1    1.0962e-01    2.8891e+05 ;    C15 - H29   
   565    596   1    1.0962e-01    2.8891e+05 ;    C15 - H30   
   565    597   1    1.0962e-01    2.8891e+05 ;    C15 - H31   
   566    598   1    1.0962e-01    2.8891e+05 ;    C16 - H32   
   566    599   1    1.0962e-01    2.8891e+05 ;    C16 - H33   
   566    600   1    1.0962e-01    2.8891e+05 ;    C16 - H34   
   601    602   1    1.5354e-01    1.9154e+05 ;     C1 - C2    
   601    617   1    1.0962e-01    2.8891e+05 ;     C1 - H1    
   601    618   1    1.0962e-01    2.8891e+05 ;     C1 - H2    
   601    619   1    1.0962e-01    2.8891e+05 ;     C1 - H3    
   602    603   1    1.5354e-01    1.9154e+05 ;     C2 - C3    
   602    604   1    1.5354e-01    1.9154e+05 ;     C2 - C4    
   602    620   1    1.0962e-01    2.8891e+05 ;     C2 - H4    
   603    621   1    1.0962e-01    2.8891e+05 ;     C3 - H5    
   603    622   1    1.0962e-01    2.8891e+05 ;     C3 - H6    
   603    623   1    1.0962e-01    2.8891e+05 ;     C3 - H7    
   604    605   1    1.5354e-01    1.9154e+05 ;     C4 - C5    
   604    624   1    1.0962e-01    2.8891e+05 ;     C4 - H8    
   604    625   1    1.0962e-01    2.8891e+05 ;     C4 - H9    
   605    606   1    1.5354e-01    1.9154e+05 ;     C5 - C6    
   605    607   1    1.5354e-01    1.9154e+05 ;     C5 - C7    
   605    626   1    1.0962e-01    2.8891e+05 ;     C5 - H10   
   606    627   1    1.0962e-01    2.8891e+05 ;     C6 - H11   
   606    628   1    1.0962e-01    2.8891e+05 ;     C6 - H12   
   606    629   1    1.0962e-01    2.8891e+05 ;     C6 - H13   
   607    608   1    1.5354e-01    1.9154e+05 ;     C7 - C8    
   607    630   1    1.0962e-01    2.8891e+05 ;     C7 - H14   
   607    631   1    1.0962e-01    2.8891e+05 ;     C7 - H15   
   608    609   1    1.5354e-01    1.9154e+05 ;     C8 - C9    
   608    610   1    1.5354e-01    1.9154e+05 ;     C8 - C10   
   608    632   1    1.0962e-01    2.8891e+05 ;     C8 - H16   
   609    633   1    1.0962e-01    2.8891e+05 ;     C9 - H17   
   609    634   1    1.0962e-01    2.8891e+05 ;     C9 - H18   
   609    635   1    1.0962e-01    2.8891e+05 ;     C9 - H19   
   610    611   1    1.5354e-01    1.9154e+05 ;    C10 - C11   
   610    636   1    1.0962e-01    2.8891e+05 ;    C10 - H20   
   610    637   1    1.0962e-01    2.8891e+05 ;    C10 - H21   
   611    612   1    1.5354e-01    1.9154e+05 ;    C11 - C12   
   611    613   1    1.5354e-01    1.9154e+05 ;    C11 - C13   
   611    638   1    1.0962e-01    2.8891e+05 ;    C11 - H22   
   612    639   1    1.0962e-01    2.8891e+05 ;    C12 - H23   
   612    640   1    1.0962e-01    2.8891e+05 ;    C12 - H24   
   612    641   1    1.0962e-01    2.8891e+05 ;    C12 - H25   
   613    614   1    1.5354e-01    1.9154e+05 ;    C13 - C14   
   613    642   1    1.0962e-01    2.8891e+05 ;    C13 - H26   
   613    643   1    1.0962e-01    2.8891e+05 ;    C13 - H27   
   614    615   1    1.5354e-01    1.9154e+05 ;    C14 - C15   
   614    616   1    1.5354e-01    1.9154e+05 ;    C14 - C16   
   614    644   1    1.0962e-01    2.8891e+05 ;    C14 - H28   
   615    645   1    1.0962e-01    2.8891e+05 ;    C15 - H29   
   615    646   1    1.0962e-01    2.8891e+05 ;    C15 - H30   
   615    647   1    1.0962e-01    2.8891e+05 ;    C15 - H31   
   616    648   1    1.0962e-01    2.8891e+05 ;    C16 - H32   
   616    649   1    1.0962e-01    2.8891e+05 ;    C16 - H33   
   616    650   1    1.0962e-01    2.8891e+05 ;    C16 - H34   
   651    652   1    1.5354e-01    1.9154e+05 ;     C1 - C2    
   651    667   1    1.0962e-01    2.8891e+05 ;     C1 - H1    
   651    668   1    1.0962e-01    2.8891e+05 ;     C1 - H2    
   651    669   1    1.0962e-01    2.8891e+05 ;     C1 - H3    
   652    653   1    1.5354e-01    1.9154e+05 ;     C2 - C3    
   652    654   1    1.5354e-01    1.9154e+05 ;     C2 - C4    
   652    670   1    1.0962e-01    2.8891e+05 ;     C2 - H4    
   653    671   1    1.0962e-01    2.8891e+05 ;     C3 - H5    
   653    672   1    1.0962e-01    2.8891e+05 ;     C3 - H6    
   653    673   1    1.0962e-01    2.8891e+05 ;     C3 - H7    
   654    655   1    1.5354e-01    1.9154e+05 ;     C4 - C5    
   654    674   1    1.0962e-01    2.8891e+05 ;     C4 - H8    
   654    675   1    1.0962e-01    2.8891e+05 ;     C4 - H9    
   655    656   1    1.5354e-01    1.9154e+05 ;     C5 - C6    
   655    657   1    1.5354e-01    1.9154e+05 ;     C5 - C7    
   655    676   1    1.0962e-01    2.8891e+05 ;     C5 - H10   
   656    677   1    1.0962e-01    2.8891e+05 ;     C6 - H11   
   656    678   1    1.0962e-01    2.8891e+05 ;     C6 - H12   
   656    679   1    1.0962e-01    2.8891e+05 ;     C6 - H13   
   657    658   1    1.5354e-01    1.9154e+05 ;     C7 - C8    
   657    680   1    1.0962e-01    2.8891e+05 ;     C7 - H14   
   657    681   1    1.0962e-01    2.8891e+05 ;     C7 - H15   
   658    659   1    1.5354e-01    1.9154e+05 ;     C8 - C9    
   658    660   1    1.5354e-01    1.9154e+05 ;     C8 - C10   
   658    682   1    1.0962e-01    2.8891e+05 ;     C8 - H16   
   659    683   1    1.0962e-01    2.8891e+05 ;     C9 - H17   
   659    684   1    1.0962e-01    2.8891e+05 ;     C9 - H18   
   659    685   1    1.0962e-01    2.8891e+05 ;     C9 - H19   
   660    661   1    1.5354e-01    1.9154e+05 ;    C10 - C11   
   660    686   1    1.0962e-01    2.8891e+05 ;    C10 - H20   
   660    687   1    1.0962e-01    2.8891e+05 ;    C10 - H21   
   661    662   1    1.5354e-01    1.9154e+05 ;    C11 - C12   
   661    663   1    1.5354e-01    1.9154e+05 ;    C11 - C13   
   661    688   1    1.0962e-01    2.8891e+05 ;    C11 - H22   
   662    689   1    1.0962e-01    2.8891e+05 ;    C12 - H23   
   662    690   1    1.0962e-01    2.8891e+05 ;    C12 - H24   
   662    691   1    1.0962e-01    2.8891e+05 ;    C12 - H25   
   663    664   1    1.5354e-01    1.9154e+05 ;    C13 - C14   
   663    692   1    1.0962e-01    2.8891e+05 ;    C13 - H26   
   663    693   1    1.0962e-01    2.8891e+05 ;    C13 - H27   
   664    665   1    1.5354e-01    1.9154e+05 ;    C14 - C15   
   664    666   1    1.5354e-01    1.9154e+05 ;    C14 - C16   
   664    694   1    1.0962e-01    2.8891e+05 ;    C14 - H28   
   665    695   1    1.0962e-01    2.8891e+05 ;    C15 - H29   
   665    696   1    1.0962e-01    2.8891e+05 ;    C15 - H30   
   665    697   1    1.0962e-01    2.8891e+05 ;    C15 - H31   
   666    698   1    1.0962e-01    2.8891e+05 ;    C16 - H32   
   666    699   1    1.0962e-01    2.8891e+05 ;    C16 - H33   
   666    700   1    1.0962e-01    2.8891e+05 ;    C16 - H34   
   701    702   1    1.5354e-01    1.9154e+05 ;     C1 - C2    
   701    717   1    1.0962e-01    2.8891e+05 ;     C1 - H1    
   701    718   1    1.0962e-01    2.8891e+05 ;     C1 - H2    
   701    719   1    1.0962e-01    2.8891e+05 ;     C1 - H3    
   702    703   1    1.5354e-01    1.9154e+05 ;     C2 - C3    
   702    704   1    1.5354e-01    1.9154e+05 ;     C2 - C4    
   702    720   1    1.0962e-01    2.8891e+05 ;     C2 - H4    
   703    721   1    1.0962e-01    2.8891e+05 ;     C3 - H5    
   703    722   1    1.0962e-01    2.8891e+05 ;     C3 - H6    
   703    723   1    1.0962e-01    2.8891e+05 ;     C3 - H7    
   704    705   1    1.5354e-01    1.9154e+05 ;     C4 - C5    
   704    724   1    1.0962e-01    2.8891e+05 ;     C4 - H8    
   704    725   1    1.0962e-01    2.8891e+05 ;     C4 - H9    
   705    706   1    1.5354e-01    1.9154e+05 ;     C5 - C6    
   705    707   1    1.5354e-01    1.9154e+05 ;     C5 - C7    
   705    726   1    1.0962e-01    2.8891e+05 ;     C5 - H10   
   706    727   1    1.0962e-01    2.8891e+05 ;     C6 - H11   
   706    728   1    1.0962e-01    2.8891e+05 ;     C6 - H12   
   706    729   1    1.0962e-01    2.8891e+05 ;     C6 - H13   
   707    708   1    1.5354e-01    1.9154e+05 ;     C7 - C8    
   707    730   1    1.0962e-01    2.8891e+05 ;     C7 - H14   
   707    731   1    1.0962e-01    2.8891e+05 ;     C7 - H15   
   708    709   1    1.5354e-01    1.9154e+05 ;     C8 - C9    
   708    710   1    1.5354e-01    1.9154e+05 ;     C8 - C10   
   708    732   1    1.0962e-01    2.8891e+05 ;     C8 - H16   
   709    733   1    1.0962e-01    2.8891e+05 ;     C9 - H17   
   709    734   1    1.0962e-01    2.8891e+05 ;     C9 - H18   
   709    735   1    1.0962e-01    2.8891e+05 ;     C9 - H19   
   710    711   1    1.5354e-01    1.9154e+05 ;    C10 - C11   
   710    736   1    1.0962e-01    2.8891e+05 ;    C10 - H20   
   710    737   1    1.0962e-01    2.8891e+05 ;    C10 - H21   
   711    712   1    1.5354e-01    1.9154e+05 ;    C11 - C12   
   711    713   1    1.5354e-01    1.9154e+05 ;    C11 - C13   
   711    738   1    1.0962e-01    2.8891e+05 ;    C11 - H22   
   712    739   1    1.0962e-01    2.8891e+05 ;    C12 - H23   
   712    740   1    1.0962e-01    2.8891e+05 ;    C12 - H24   
   712    741   1    1.0962e-01    2.8891e+05 ;    C12 - H25   
   713    714   1    1.5354e-01    1.9154e+05 ;    C13 - C14   
   713    742   1    1.0962e-01    2.8891e+05 ;    C13 - H26   
   713    743   1    1.0962e-01    2.8891e+05 ;    C13 - H27   
   714    715   1    1.5354e-01    1.9154e+05 ;    C14 - C15   
   714    716   1    1.5354e-01    1.9154e+05 ;    C14 - C16   
   714    744   1    1.0962e-01    2.8891e+05 ;    C14 - H28   
   715    745   1    1.0962e-01    2.8891e+05 ;    C15 - H29   
   715    746   1    1.0962e-01    2.8891e+05 ;    C15 - H30   
   715    747   1    1.0962e-01    2.8891e+05 ;    C15 - H31   
   716    748   1    1.0962e-01    2.8891e+05 ;    C16 - H32   
   716    749   1    1.0962e-01    2.8891e+05 ;    C16 - H33   
   716    750   1    1.0962e-01    2.8891e+05 ;    C16 - H34   
   751    752   1    1.5354e-01    1.9154e+05 ;     C1 - C2    
   751    767   1    1.0962e-01    2.8891e+05 ;     C1 - H1    
   751    768   1    1.0962e-01    2.8891e+05 ;     C1 - H2    
   751    769   1    1.0962e-01    2.8891e+05 ;     C1 - H3    
   752    753   1    1.5354e-01    1.9154e+05 ;     C2 - C3    
   752    754   1    1.5354e-01    1.9154e+05 ;     C2 - C4    
   752    770   1    1.0962e-01    2.8891e+05 ;     C2 - H4    
   753    771   1    1.0962e-01    2.8891e+05 ;     C3 - H5    
   753    772   1    1.0962e-01    2.8891e+05 ;     C3 - H6    
   753    773   1    1.0962e-01    2.8891e+05 ;     C3 - H7    
   754    755   1    1.5354e-01    1.9154e+05 ;     C4 - C5    
   754    774   1    1.0962e-01    2.8891e+05 ;     C4 - H8    
   754    775   1    1.0962e-01    2.8891e+05 ;     C4 - H9    
   755    756   1    1.5354e-01    1.9154e+05 ;     C5 - C6    
   755    757   1    1.5354e-01    1.9154e+05 ;     C5 - C7    
   755    776   1    1.0962e-01    2.8891e+05 ;     C5 - H10   
   756    777   1    1.0962e-01    2.8891e+05 ;     C6 - H11   
   756    778   1    1.0962e-01    2.8891e+05 ;     C6 - H12   
   756    779   1    1.0962e-01    2.8891e+05 ;     C6 - H13   
   757    758   1    1.5354e-01    1.9154e+05 ;     C7 - C8    
   757    780   1    1.0962e-01    2.8891e+05 ;     C7 - H14   
   757    781   1    1.0962e-01    2.8891e+05 ;     C7 - H15   
   758    759   1    1.5354e-01    1.9154e+05 ;     C8 - C9    
   758    760   1    1.5354e-01    1.9154e+05 ;     C8 - C10   
   758    782   1    1.0962e-01    2.8891e+05 ;     C8 - H16   
   759    783   1    1.0962e-01    2.8891e+05 ;     C9 - H17   
   759    784   1    1.0962e-01    2.8891e+05 ;     C9 - H18   
   759    785   1    1.0962e-01    2.8891e+05 ;     C9 - H19   
   760    761   1    1.5354e-01    1.9154e+05 ;    C10 - C11   
   760    786   1    1.0962e-01    2.8891e+05 ;    C10 - H20   
   760    787   1    1.0962e-01    2.8891e+05 ;    C10 - H21   
   761    762   1    1.5354e-01    1.9154e+05 ;    C11 - C12   
   761    763   1    1.5354e-01    1.9154e+05 ;    C11 - C13   
   761    788   1    1.0962e-01    2.8891e+05 ;    C11 - H22   
   762    789   1    1.0962e-01    2.8891e+05 ;    C12 - H23   
   762    790   1    1.0962e-01    2.8891e+05 ;    C12 - H24   
   762    791   1    1.0962e-01    2.8891e+05 ;    C12 - H25   
   763    764   1    1.5354e-01    1.9154e+05 ;    C13 - C14   
   763    792   1    1.0962e-01    2.8891e+05 ;    C13 - H26   
   763    793   1    1.0962e-01    2.8891e+05 ;    C13 - H27   
   764    765   1    1.5354e-01    1.9154e+05 ;    C14 - C15   
   764    766   1    1.5354e-01    1.9154e+05 ;    C14 - C16   
   764    794   1    1.0962e-01    2.8891e+05 ;    C14 - H28   
   765    795   1    1.0962e-01    2.8891e+05 ;    C15 - H29   
   765    796   1    1.0962e-01    2.8891e+05 ;    C15 - H30   
   765    797   1    1.0962e-01    2.8891e+05 ;    C15 - H31   
   766    798   1    1.0962e-01    2.8891e+05 ;    C16 - H32   
   766    799   1    1.0962e-01    2.8891e+05 ;    C16 - H33   
   766    800   1    1.0962e-01    2.8891e+05 ;    C16 - H34   
   801    802   1    1.5354e-01    1.9154e+05 ;     C1 - C2    
   801    817   1    1.0962e-01    2.8891e+05 ;     C1 - H1    
   801    818   1    1.0962e-01    2.8891e+05 ;     C1 - H2    
   801    819   1    1.0962e-01    2.8891e+05 ;     C1 - H3    
   802    803   1    1.5354e-01    1.9154e+05 ;     C2 - C3    
   802    804   1    1.5354e-01    1.9154e+05 ;     C2 - C4    
   802    820   1    1.0962e-01    2.8891e+05 ;     C2 - H4    
   803    821   1    1.0962e-01    2.8891e+05 ;     C3 - H5    
   803    822   1    1.0962e-01    2.8891e+05 ;     C3 - H6    
   803    823   1    1.0962e-01    2.8891e+05 ;     C3 - H7    
   804    805   1    1.5354e-01    1.9154e+05 ;     C4 - C5    
   804    824   1    1.0962e-01    2.8891e+05 ;     C4 - H8    
   804    825   1    1.0962e-01    2.8891e+05 ;     C4 - H9    
   805    806   1    1.5354e-01    1.9154e+05 ;     C5 - C6    
   805    807   1    1.5354e-01    1.9154e+05 ;     C5 - C7    
   805    826   1    1.0962e-01    2.8891e+05 ;     C5 - H10   
   806    827   1    1.0962e-01    2.8891e+05 ;     C6 - H11   
   806    828   1    1.0962e-01    2.8891e+05 ;     C6 - H12   
   806    829   1    1.0962e-01    2.8891e+05 ;     C6 - H13   
   807    808   1    1.5354e-01    1.9154e+05 ;     C7 - C8    
   807    830   1    1.0962e-01    2.8891e+05 ;     C7 - H14   
   807    831   1    1.0962e-01    2.8891e+05 ;     C7 - H15   
   808    809   1    1.5354e-01    1.9154e+05 ;     C8 - C9    
   808    810   1    1.5354e-01    1.9154e+05 ;     C8 - C10   
   808    832   1    1.0962e-01    2.8891e+05 ;     C8 - H16   
   809    833   1    1.0962e-01    2.8891e+05 ;     C9 - H17   
   809    834   1    1.0962e-01    2.8891e+05 ;     C9 - H18   
   809    835   1    1.0962e-01    2.8891e+05 ;     C9 - H19   
   810    811   1    1.5354e-01    1.9154e+05 ;    C10 - C11   
   810    836   1    1.0962e-01    2.8891e+05 ;    C10 - H20   
   810    837   1    1.0962e-01    2.8891e+05 ;    C10 - H21   
   811    812   1    1.5354e-01    1.9154e+05 ;    C11 - C12   
   811    813   1    1.5354e-01    1.9154e+05 ;    C11 - C13   
   811    838   1    1.0962e-01    2.8891e+05 ;    C11 - H22   
   812    839   1    1.0962e-01    2.8891e+05 ;    C12 - H23   
   812    840   1    1.0962e-01    2.8891e+05 ;    C12 - H24   
   812    841   1    1.0962e-01    2.8891e+05 ;    C12 - H25   
   813    814   1    1.5354e-01    1.9154e+05 ;    C13 - C14   
   813    842   1    1.0962e-01    2.8891e+05 ;    C13 - H26   
   813    843   1    1.0962e-01    2.8891e+05 ;    C13 - H27   
   814    815   1    1.5354e-01    1.9154e+05 ;    C14 - C15   
   814    816   1    1.5354e-01    1.9154e+05 ;    C14 - C16   
   814    844   1    1.0962e-01    2.8891e+05 ;    C14 - H28   
   815    845   1    1.0962e-01    2.8891e+05 ;    C15 - H29   
   815    846   1    1.0962e-01    2.8891e+05 ;    C15 - H30   
   815    847   1    1.0962e-01    2.8891e+05 ;    C15 - H31   
   816    848   1    1.0962e-01    2.8891e+05 ;    C16 - H32   
   816    849   1    1.0962e-01    2.8891e+05 ;    C16 - H33   
   816    850   1    1.0962e-01    2.8891e+05 ;    C16 - H34   
   851    852   1    1.5354e-01    1.9154e+05 ;     C1 - C2    
   851    867   1    1.0962e-01    2.8891e+05 ;     C1 - H1    
   851    868   1    1.0962e-01    2.8891e+05 ;     C1 - H2    
   851    869   1    1.0962e-01    2.8891e+05 ;     C1 - H3    
   852    853   1    1.5354e-01    1.9154e+05 ;     C2 - C3    
   852    854   1    1.5354e-01    1.9154e+05 ;     C2 - C4    
   852    870   1    1.0962e-01    2.8891e+05 ;     C2 - H4    
   853    871   1    1.0962e-01    2.8891e+05 ;     C3 - H5    
   853    872   1    1.0962e-01    2.8891e+05 ;     C3 - H6    
   853    873   1    1.0962e-01    2.8891e+05 ;     C3 - H7    
   854    855   1    1.5354e-01    1.9154e+05 ;     C4 - C5    
   854    874   1    1.0962e-01    2.8891e+05 ;     C4 - H8    
   854    875   1    1.0962e-01    2.8891e+05 ;     C4 - H9    
   855    856   1    1.5354e-01    1.9154e+05 ;     C5 - C6    
   855    857   1    1.5354e-01    1.9154e+05 ;     C5 - C7    
   855    876   1    1.0962e-01    2.8891e+05 ;     C5 - H10   
   856    877   1    1.0962e-01    2.8891e+05 ;     C6 - H11   
   856    878   1    1.0962e-01    2.8891e+05 ;     C6 - H12   
   856    879   1    1.0962e-01    2.8891e+05 ;     C6 - H13   
   857    858   1    1.5354e-01    1.9154e+05 ;     C7 - C8    
   857    880   1    1.0962e-01    2.8891e+05 ;     C7 - H14   
   857    881   1    1.0962e-01    2.8891e+05 ;     C7 - H15   
   858    859   1    1.5354e-01    1.9154e+05 ;     C8 - C9    
   858    860   1    1.5354e-01    1.9154e+05 ;     C8 - C10   
   858    882   1    1.0962e-01    2.8891e+05 ;     C8 - H16   
   859    883   1    1.0962e-01    2.8891e+05 ;     C9 - H17   
   859    884   1    1.0962e-01    2.8891e+05 ;     C9 - H18   
   859    885   1    1.0962e-01    2.8891e+05 ;     C9 - H19   
   860    861   1    1.5354e-01    1.9154e+05 ;    C10 - C11   
   860    886   1    1.0962e-01    2.8891e+05 ;    C10 - H20   
   860    887   1    1.0962e-01    2.8891e+05 ;    C10 - H21   
   861    862   1    1.5354e-01    1.9154e+05 ;    C11 - C12   
   861    863   1    1.5354e-01    1.9154e+05 ;    C11 - C13   
   861    888   1    1.0962e-01    2.8891e+05 ;    C11 - H22   
   862    889   1    1.0962e-01    2.8891e+05 ;    C12 - H23   
   862    890   1    1.0962e-01    2.8891e+05 ;    C12 - H24   
   862    891   1    1.0962e-01    2.8891e+05 ;    C12 - H25   
   863    864   1    1.5354e-01    1.9154e+05 ;    C13 - C14   
   863    892   1    1.0962e-01    2.8891e+05 ;    C13 - H26   
   863    893   1    1.0962e-01    2.8891e+05 ;    C13 - H27   
   864    865   1    1.5354e-01    1.9154e+05 ;    C14 - C15   
   864    866   1    1.5354e-01    1.9154e+05 ;    C14 - C16   
   864    894   1    1.0962e-01    2.8891e+05 ;    C14 - H28   
   865    895   1    1.0962e-01    2.8891e+05 ;    C15 - H29   
   865    896   1    1.0962e-01    2.8891e+05 ;    C15 - H30   
   865    897   1    1.0962e-01    2.8891e+05 ;    C15 - H31   
   866    898   1    1.0962e-01    2.8891e+05 ;    C16 - H32   
   866    899   1    1.0962e-01    2.8891e+05 ;    C16 - H33   
   866    900   1    1.0962e-01    2.8891e+05 ;    C16 - H34   
   901    902   1    1.5354e-01    1.9154e+05 ;     C1 - C2    
   901    917   1    1.0962e-01    2.8891e+05 ;     C1 - H1    
   901    918   1    1.0962e-01    2.8891e+05 ;     C1 - H2    
   901    919   1    1.0962e-01    2.8891e+05 ;     C1 - H3    
   902    903   1    1.5354e-01    1.9154e+05 ;     C2 - C3    
   902    904   1    1.5354e-01    1.9154e+05 ;     C2 - C4    
   902    920   1    1.0962e-01    2.8891e+05 ;     C2 - H4    
   903    921   1    1.0962e-01    2.8891e+05 ;     C3 - H5    
   903    922   1    1.0962e-01    2.8891e+05 ;     C3 - H6    
   903    923   1    1.0962e-01    2.8891e+05 ;     C3 - H7    
   904    905   1    1.5354e-01    1.9154e+05 ;     C4 - C5    
   904    924   1    1.0962e-01    2.8891e+05 ;     C4 - H8    
   904    925   1    1.0962e-01    2.8891e+05 ;     C4 - H9    
   905    906   1    1.5354e-01    1.9154e+05 ;     C5 - C6    
   905    907   1    1.5354e-01    1.9154e+05 ;     C5 - C7    
   905    926   1    1.0962e-01    2.8891e+05 ;     C5 - H10   
   906    927   1    1.0962e-01    2.8891e+05 ;     C6 - H11   
   906    928   1    1.0962e-01    2.8891e+05 ;     C6 - H12   
   906    929   1    1.0962e-01    2.8891e+05 ;     C6 - H13   
   907    908   1    1.5354e-01    1.9154e+05 ;     C7 - C8    
   907    930   1    1.0962e-01    2.8891e+05 ;     C7 - H14   
   907    931   1    1.0962e-01    2.8891e+05 ;     C7 - H15   
   908    909   1    1.5354e-01    1.9154e+05 ;     C8 - C9    
   908    910   1    1.5354e-01    1.9154e+05 ;     C8 - C10   
   908    932   1    1.0962e-01    2.8891e+05 ;     C8 - H16   
   909    933   1    1.0962e-01    2.8891e+05 ;     C9 - H17   
   909    934   1    1.0962e-01    2.8891e+05 ;     C9 - H18   
   909    935   1    1.0962e-01    2.8891e+05 ;     C9 - H19   
   910    911   1    1.5354e-01    1.9154e+05 ;    C10 - C11   
   910    936   1    1.0962e-01    2.8891e+05 ;    C10 - H20   
   910    937   1    1.0962e-01    2.8891e+05 ;    C10 - H21   
   911    912   1    1.5354e-01    1.9154e+05 ;    C11 - C12   
   911    913   1    1.5354e-01    1.9154e+05 ;    C11 - C13   
   911    938   1    1.0962e-01    2.8891e+05 ;    C11 - H22   
   912    939   1    1.0962e-01    2.8891e+05 ;    C12 - H23   
   912    940   1    1.0962e-01    2.8891e+05 ;    C12 - H24   
   912    941   1    1.0962e-01    2.8891e+05 ;    C12 - H25   
   913    914   1    1.5354e-01    1.9154e+05 ;    C13 - C14   
   913    942   1    1.0962e-01    2.8891e+05 ;    C13 - H26   
   913    943   1    1.0962e-01    2.8891e+05 ;    C13 - H27   
   914    915   1    1.5354e-01    1.9154e+05 ;    C14 - C15   
   914    916   1    1.5354e-01    1.9154e+05 ;    C14 - C16   
   914    944   1    1.0962e-01    2.8891e+05 ;    C14 - H28   
   915    945   1    1.0962e-01    2.8891e+05 ;    C15 - H29   
   915    946   1    1.0962e-01    2.8891e+05 ;    C15 - H30   
   915    947   1    1.0962e-01    2.8891e+05 ;    C15 - H31   
   916    948   1    1.0962e-01    2.8891e+05 ;    C16 - H32   
   916    949   1    1.0962e-01    2.8891e+05 ;    C16 - H33   
   916    950   1    1.0962e-01    2.8891e+05 ;    C16 - H34   
   951    952   1    1.5354e-01    1.9154e+05 ;     C1 - C2    
   951    967   1    1.0962e-01    2.8891e+05 ;     C1 - H1    
   951    968   1    1.0962e-01    2.8891e+05 ;     C1 - H2    
   951    969   1    1.0962e-01    2.8891e+05 ;     C1 - H3    
   952    953   1    1.5354e-01    1.9154e+05 ;     C2 - C3    
   952    954   1    1.5354e-01    1.9154e+05 ;     C2 - C4    
   952    970   1    1.0962e-01    2.8891e+05 ;     C2 - H4    
   953    971   1    1.0962e-01    2.8891e+05 ;     C3 - H5    
   953    972   1    1.0962e-01    2.8891e+05 ;     C3 - H6    
   953    973   1    1.0962e-01    2.8891e+05 ;     C3 - H7    
   954    955   1    1.5354e-01    1.9154e+05 ;     C4 - C5    
   954    974   1    1.0962e-01    2.8891e+05 ;     C4 - H8    
   954    975   1    1.0962e-01    2.8891e+05 ;     C4 - H9    
   955    956   1    1.5354e-01    1.9154e+05 ;     C5 - C6    
   955    957   1    1.5354e-01    1.9154e+05 ;     C5 - C7    
   955    976   1    1.0962e-01    2.8891e+05 ;     C5 - H10   
   956    977   1    1.0962e-01    2.8891e+05 ;     C6 - H11   
   956    978   1    1.0962e-01    2.8891e+05 ;     C6 - H12   
   956    979   1    1.0962e-01    2.8891e+05 ;     C6 - H13   
   957    958   1    1.5354e-01    1.9154e+05 ;     C7 - C8    
   957    980   1    1.0962e-01    2.8891e+05 ;     C7 - H14   
   957    981   1    1.0962e-01    2.8891e+05 ;     C7 - H15   
   958    959   1    1.5354e-01    1.9154e+05 ;     C8 - C9    
   958    960   1    1.5354e-01    1.9154e+05 ;     C8 - C10   
   958    982   1    1.0962e-01    2.8891e+05 ;     C8 - H16   
   959    983   1    1.0962e-01    2.8891e+05 ;     C9 - H17   
   959    984   1    1.0962e-01    2.8891e+05 ;     C9 - H18   
   959    985   1    1.0962e-01    2.8891e+05 ;     C9 - H19   
   960    961   1    1.5354e-01    1.9154e+05 ;    C10 - C11   
   960    986   1    1.0962e-01    2.8891e+05 ;    C10 - H20   
   960    987   1    1.0962e-01    2.8891e+05 ;    C10 - H21   
   961    962   1    1.5354e-01    1.9154e+05 ;    C11 - C12   
   961    963   1    1.5354e-01    1.9154e+05 ;    C11 - C13   
   961    988   1    1.0962e-01    2.8891e+05 ;    C11 - H22   
   962    989   1    1.0962e-01    2.8891e+05 ;    C12 - H23   
   962    990   1    1.0962e-01    2.8891e+05 ;    C12 - H24   
   962    991   1    1.0962e-01    2.8891e+05 ;    C12 - H25   
   963    964   1    1.5354e-01    1.9154e+05 ;    C13 - C14   
   963    992   1    1.0962e-01    2.8891e+05 ;    C13 - H26   
   963    993   1    1.0962e-01    2.8891e+05 ;    C13 - H27   
   964    965   1    1.5354e-01    1.9154e+05 ;    C14 - C15   
   964    966   1    1.5354e-01    1.9154e+05 ;    C14 - C16   
   964    994   1    1.0962e-01    2.8891e+05 ;    C14 - H28   
   965    995   1    1.0962e-01    2.8891e+05 ;    C15 - H29   
   965    996   1    1.0962e-01    2.8891e+05 ;    C15 - H30   
   965    997   1    1.0962e-01    2.8891e+05 ;    C15 - H31   
   966    998   1    1.0962e-01    2.8891e+05 ;    C16 - H32   
   966    999   1    1.0962e-01    2.8891e+05 ;    C16 - H33   
   966   1000   1    1.0962e-01    2.8891e+05 ;    C16 - H34   

[ pairs ]
;   ai     aj    funct
     1      5      1 ;     C1 - C5    
     1     21      1 ;     C1 - H5    
     1     22      1 ;     C1 - H6    
     1     23      1 ;     C1 - H7    
     1     24      1 ;     C1 - H8    
     1     25      1 ;     C1 - H9    
     2      6      1 ;     C2 - C6    
     2      7      1 ;     C2 - C7    
     2     26      1 ;     C2 - H10   
     3      5      1 ;     C3 - C5    
     3     24      1 ;     C3 - H8    
     3     25      1 ;     C3 - H9    
     4      8      1 ;     C4 - C8    
     4     21      1 ;     C4 - H5    
     4     22      1 ;     C4 - H6    
     4     23      1 ;     C4 - H7    
     4     27      1 ;     C4 - H11   
     4     28      1 ;     C4 - H12   
     4     29      1 ;     C4 - H13   
     4     30      1 ;     C4 - H14   
     4     31      1 ;     C4 - H15   
     5      9      1 ;     C5 - C9    
     5     10      1 ;     C5 - C10   
     5     20      1 ;     C5 - H4    
     5     32      1 ;     C5 - H16   
     6      8      1 ;     C6 - C8    
     6     24      1 ;     C6 - H8    
     6     25      1 ;     C6 - H9    
     6     30      1 ;     C6 - H14   
     6     31      1 ;     C6 - H15   
     7     11      1 ;     C7 - C11   
     7     24      1 ;     C7 - H8    
     7     25      1 ;     C7 - H9    
     7     27      1 ;     C7 - H11   
     7     28      1 ;     C7 - H12   
     7     29      1 ;     C7 - H13   
     7     33      1 ;     C7 - H17   
     7     34      1 ;     C7 - H18   
     7     35      1 ;     C7 - H19   
     7     36      1 ;     C7 - H20   
     7     37      1 ;     C7 - H21   
     8     12      1 ;     C8 - C12   
     8     13      1 ;     C8 - C13   
     8     26      1 ;     C8 - H10   
     8     38      1 ;     C8 - H22   
     9     11      1 ;     C9 - C11   
     9     30      1 ;     C9 - H14   
     9     31      1 ;     C9 - H15   
     9     36      1 ;     C9 - H20   
     9     37      1 ;     C9 - H21   
    10     14      1 ;    C10 - C14   
    10     30      1 ;    C10 - H14   
    10     31      1 ;    C10 - H15   
    10     33      1 ;    C10 - H17   
    10     34      1 ;    C10 - H18   
    10     35      1 ;    C10 - H19   
    10     39      1 ;    C10 - H23   
    10     40      1 ;    C10 - H24   
    10     41      1 ;    C10 - H25   
    10     42      1 ;    C10 - H26   
    10     43      1 ;    C10 - H27   
    11     15      1 ;    C11 - C15   
    11     16      1 ;    C11 - C16   
    11     32      1 ;    C11 - H16   
    11     44      1 ;    C11 - H28   
    12     14      1 ;    C12 - C14   
    12     36      1 ;    C12 - H20   
    12     37      1 ;    C12 - H21   
    12     42      1 ;    C12 - H26   
    12     43      1 ;    C12 - H27   
    13     36      1 ;    C13 - H20   
    13     37      1 ;    C13 - H21   
    13     39      1 ;    C13 - H23   
    13     40      1 ;    C13 - H24   
    13     41      1 ;    C13 - H25   
    13     45      1 ;    C13 - H29   
    13     46      1 ;    C13 - H30   
    13     47      1 ;    C13 - H31   
    13     48      1 ;    C13 - H32   
    13     49      1 ;    C13 - H33   
    13     50      1 ;    C13 - H34   
    14     38      1 ;    C14 - H22   
    15     42      1 ;    C15 - H26   
    15     43      1 ;    C15 - H27   
    15     48      1 ;    C15 - H32   
    15     49      1 ;    C15 - H33   
    15     50      1 ;    C15 - H34   
    16     42      1 ;    C16 - H26   
    16     43      1 ;    C16 - H27   
    16     45      1 ;    C16 - H29   
    16     46      1 ;    C16 - H30   
    16     47      1 ;    C16 - H31   
    17      3      1 ;     H1 - C3    
    17      4      1 ;     H1 - C4    
    17     20      1 ;     H1 - H4    
    18      3      1 ;     H2 - C3    
    18      4      1 ;     H2 - C4    
    18     20      1 ;     H2 - H4    
    19      3      1 ;     H3 - C3    
    19      4      1 ;     H3 - C4    
    19     20      1 ;     H3 - H4    
    20     21      1 ;     H4 - H5    
    20     22      1 ;     H4 - H6    
    20     23      1 ;     H4 - H7    
    20     24      1 ;     H4 - H8    
    20     25      1 ;     H4 - H9    
    24     26      1 ;     H8 - H10   
    25     26      1 ;     H9 - H10   
    26     27      1 ;    H10 - H11   
    26     28      1 ;    H10 - H12   
    26     29      1 ;    H10 - H13   
    26     30      1 ;    H10 - H14   
    26     31      1 ;    H10 - H15   
    30     32      1 ;    H14 - H16   
    31     32      1 ;    H15 - H16   
    32     33      1 ;    H16 - H17   
    32     34      1 ;    H16 - H18   
    32     35      1 ;    H16 - H19   
    32     36      1 ;    H16 - H20   
    32     37      1 ;    H16 - H21   
    36     38      1 ;    H20 - H22   
    37     38      1 ;    H21 - H22   
    38     39      1 ;    H22 - H23   
    38     40      1 ;    H22 - H24   
    38     41      1 ;    H22 - H25   
    38     42      1 ;    H22 - H26   
    38     43      1 ;    H22 - H27   
    42     44      1 ;    H26 - H28   
    43     44      1 ;    H27 - H28   
    44     45      1 ;    H28 - H29   
    44     46      1 ;    H28 - H30   
    44     47      1 ;    H28 - H31   
    44     48      1 ;    H28 - H32   
    44     49      1 ;    H28 - H33   
    44     50      1 ;    H28 - H34   
    51     55      1 ;     C1 - C5    
    51     71      1 ;     C1 - H5    
    51     72      1 ;     C1 - H6    
    51     73      1 ;     C1 - H7    
    51     74      1 ;     C1 - H8    
    51     75      1 ;     C1 - H9    
    52     56      1 ;     C2 - C6    
    52     57      1 ;     C2 - C7    
    52     76      1 ;     C2 - H10   
    53     55      1 ;     C3 - C5    
    53     67      1 ;     C3 - H1    
    53     68      1 ;     C3 - H2    
    53     69      1 ;     C3 - H3    
    53     74      1 ;     C3 - H8    
    53     75      1 ;     C3 - H9    
    54     58      1 ;     C4 - C8    
    54     67      1 ;     C4 - H1    
    54     68      1 ;     C4 - H2    
    54     69      1 ;     C4 - H3    
    54     71      1 ;     C4 - H5    
    54     72      1 ;     C4 - H6    
    54     73      1 ;     C4 - H7    
    54     77      1 ;     C4 - H11   
    54     78      1 ;     C4 - H12   
    54     79      1 ;     C4 - H13   
    54     80      1 ;     C4 - H14   
    54     81      1 ;     C4 - H15   
    55     59      1 ;     C5 - C9    
    55     60      1 ;     C5 - C10   
    55     70      1 ;     C5 - H4    
    55     82      1 ;     C5 - H16   
    56     58      1 ;     C6 - C8    
    56     74      1 ;     C6 - H8    
    56     75      1 ;     C6 - H9    
    56     80      1 ;     C6 - H14   
    56     81      1 ;     C6 - H15   
    57     61      1 ;     C7 - C11   
    57     74      1 ;     C7 - H8    
    57     75      1 ;     C7 - H9    
    57     77      1 ;     C7 - H11   
    57     78      1 ;     C7 - H12   
    57     79      1 ;     C7 - H13   
    57     83      1 ;     C7 - H17   
    57     84      1 ;     C7 - H18   
    57     85      1 ;     C7 - H19   
    57     86      1 ;     C7 - H20   
    57     87      1 ;     C7 - H21   
    58     62      1 ;     C8 - C12   
    58     63      1 ;     C8 - C13   
    58     76      1 ;     C8 - H10   
    58     88      1 ;     C8 - H22   
    59     61      1 ;     C9 - C11   
    59     80      1 ;     C9 - H14   
    59     81      1 ;     C9 - H15   
    59     86      1 ;     C9 - H20   
    59     87      1 ;     C9 - H21   
    60     64      1 ;    C10 - C14   
    60     80      1 ;    C10 - H14   
    60     81      1 ;    C10 - H15   
    60     83      1 ;    C10 - H17   
    60     84      1 ;    C10 - H18   
    60     85      1 ;    C10 - H19   
    60     89      1 ;    C10 - H23   
    60     90      1 ;    C10 - H24   
    60     91      1 ;    C10 - H25   
    60     92      1 ;    C10 - H26   
    60     93      1 ;    C10 - H27   
    61     65      1 ;    C11 - C15   
    61     66      1 ;    C11 - C16   
    61     82      1 ;    C11 - H16   
    61     94      1 ;    C11 - H28   
    62     64      1 ;    C12 - C14   
    62     86      1 ;    C12 - H20   
    62     87      1 ;    C12 - H21   
    62     92      1 ;    C12 - H26   
    62     93      1 ;    C12 - H27   
    63     86      1 ;    C13 - H20   
    63     87      1 ;    C13 - H21   
    63     89      1 ;    C13 - H23   
    63     90      1 ;    C13 - H24   
    63     91      1 ;    C13 - H25   
    63     95      1 ;    C13 - H29   
    63     96      1 ;    C13 - H30   
    63     97      1 ;    C13 - H31   
    63     98      1 ;    C13 - H32   
    63     99      1 ;    C13 - H33   
    63    100      1 ;    C13 - H34   
    64     88      1 ;    C14 - H22   
    65     92      1 ;    C15 - H26   
    65     93      1 ;    C15 - H27   
    65     98      1 ;    C15 - H32   
    65     99      1 ;    C15 - H33   
    65    100      1 ;    C15 - H34   
    66     92      1 ;    C16 - H26   
    66     93      1 ;    C16 - H27   
    66     95      1 ;    C16 - H29   
    66     96      1 ;    C16 - H30   
    66     97      1 ;    C16 - H31   
    67     70      1 ;     H1 - H4    
    68     70      1 ;     H2 - H4    
    69     70      1 ;     H3 - H4    
    70     71      1 ;     H4 - H5    
    70     72      1 ;     H4 - H6    
    70     73      1 ;     H4 - H7    
    70     74      1 ;     H4 - H8    
    70     75      1 ;     H4 - H9    
    74     76      1 ;     H8 - H10   
    75     76      1 ;     H9 - H10   
    76     77      1 ;    H10 - H11   
    76     78      1 ;    H10 - H12   
    76     79      1 ;    H10 - H13   
    76     80      1 ;    H10 - H14   
    76     81      1 ;    H10 - H15   
    80     82      1 ;    H14 - H16   
    81     82      1 ;    H15 - H16   
    82     83      1 ;    H16 - H17   
    82     84      1 ;    H16 - H18   
    82     85      1 ;    H16 - H19   
    82     86      1 ;    H16 - H20   
    82     87      1 ;    H16 - H21   
    86     88      1 ;    H20 - H22   
    87     88      1 ;    H21 - H22   
    88     89      1 ;    H22 - H23   
    88     90      1 ;    H22 - H24   
    88     91      1 ;    H22 - H25   
    88     92      1 ;    H22 - H26   
    88     93      1 ;    H22 - H27   
    92     94      1 ;    H26 - H28   
    93     94      1 ;    H27 - H28   
    94     95      1 ;    H28 - H29   
    94     96      1 ;    H28 - H30   
    94     97      1 ;    H28 - H31   
    94     98      1 ;    H28 - H32   
    94     99      1 ;    H28 - H33   
    94    100      1 ;    H28 - H34   
   101    105      1 ;     C1 - C5    
   101    121      1 ;     C1 - H5    
   101    122      1 ;     C1 - H6    
   101    123      1 ;     C1 - H7    
   101    124      1 ;     C1 - H8    
   101    125      1 ;     C1 - H9    
   102    106      1 ;     C2 - C6    
   102    107      1 ;     C2 - C7    
   102    126      1 ;     C2 - H10   
   103    105      1 ;     C3 - C5    
   103    117      1 ;     C3 - H1    
   103    118      1 ;     C3 - H2    
   103    119      1 ;     C3 - H3    
   103    124      1 ;     C3 - H8    
   103    125      1 ;     C3 - H9    
   104    108      1 ;     C4 - C8    
   104    117      1 ;     C4 - H1    
   104    118      1 ;     C4 - H2    
   104    119      1 ;     C4 - H3    
   104    121      1 ;     C4 - H5    
   104    122      1 ;     C4 - H6    
   104    123      1 ;     C4 - H7    
   104    127      1 ;     C4 - H11   
   104    128      1 ;     C4 - H12   
   104    129      1 ;     C4 - H13   
   104    130      1 ;     C4 - H14   
   104    131      1 ;     C4 - H15   
   105    109      1 ;     C5 - C9    
   105    110      1 ;     C5 - C10   
   105    120      1 ;     C5 - H4    
   105    132      1 ;     C5 - H16   
   106    108      1 ;     C6 - C8    
   106    124      1 ;     C6 - H8    
   106    125      1 ;     C6 - H9    
   106    130      1 ;     C6 - H14   
   106    131      1 ;     C6 - H15   
   107    111      1 ;     C7 - C11   
   107    124      1 ;     C7 - H8    
   107    125      1 ;     C7 - H9    
   107    127      1 ;     C7 - H11   
   107    128      1 ;     C7 - H12   
   107    129      1 ;     C7 - H13   
   107    133      1 ;     C7 - H17   
   107    134      1 ;     C7 - H18   
   107    135      1 ;     C7 - H19   
   107    136      1 ;     C7 - H20   
   107    137      1 ;     C7 - H21   
   108    112      1 ;     C8 - C12   
   108    113      1 ;     C8 - C13   
   108    126      1 ;     C8 - H10   
   108    138      1 ;     C8 - H22   
   109    111      1 ;     C9 - C11   
   109    130      1 ;     C9 - H14   
   109    131      1 ;     C9 - H15   
   109    136      1 ;     C9 - H20   
   109    137      1 ;     C9 - H21   
   110    114      1 ;    C10 - C14   
   110    130      1 ;    C10 - H14   
   110    131      1 ;    C10 - H15   
   110    133      1 ;    C10 - H17   
   110    134      1 ;    C10 - H18   
   110    135      1 ;    C10 - H19   
   110    139      1 ;    C10 - H23   
   110    140      1 ;    C10 - H24   
   110    141      1 ;    C10 - H25   
   110    142      1 ;    C10 - H26   
   110    143      1 ;    C10 - H27   
   111    115      1 ;    C11 - C15   
   111    116      1 ;    C11 - C16   
   111    132      1 ;    C11 - H16   
   111    144      1 ;    C11 - H28   
   112    114      1 ;    C12 - C14   
   112    136      1 ;    C12 - H20   
   112    137      1 ;    C12 - H21   
   112    142      1 ;    C12 - H26   
   112    143      1 ;    C12 - H27   
   113    136      1 ;    C13 - H20   
   113    137      1 ;    C13 - H21   
   113    139      1 ;    C13 - H23   
   113    140      1 ;    C13 - H24   
   113    141      1 ;    C13 - H25   
   113    145      1 ;    C13 - H29   
   113    146      1 ;    C13 - H30   
   113    147      1 ;    C13 - H31   
   113    148      1 ;    C13 - H32   
   113    149      1 ;    C13 - H33   
   113    150      1 ;    C13 - H34   
   114    138      1 ;    C14 - H22   
   115    142      1 ;    C15 - H26   
   115    143      1 ;    C15 - H27   
   115    148      1 ;    C15 - H32   
   115    149      1 ;    C15 - H33   
   115    150      1 ;    C15 - H34   
   116    142      1 ;    C16 - H26   
   116    143      1 ;    C16 - H27   
   116    145      1 ;    C16 - H29   
   116    146      1 ;    C16 - H30   
   116    147      1 ;    C16 - H31   
   117    120      1 ;     H1 - H4    
   118    120      1 ;     H2 - H4    
   119    120      1 ;     H3 - H4    
   120    121      1 ;     H4 - H5    
   120    122      1 ;     H4 - H6    
   120    123      1 ;     H4 - H7    
   120    124      1 ;     H4 - H8    
   120    125      1 ;     H4 - H9    
   124    126      1 ;     H8 - H10   
   125    126      1 ;     H9 - H10   
   126    127      1 ;    H10 - H11   
   126    128      1 ;    H10 - H12   
   126    129      1 ;    H10 - H13   
   126    130      1 ;    H10 - H14   
   126    131      1 ;    H10 - H15   
   130    132      1 ;    H14 - H16   
   131    132      1 ;    H15 - H16   
   132    133      1 ;    H16 - H17   
   132    134      1 ;    H16 - H18   
   132    135      1 ;    H16 - H19   
   132    136      1 ;    H16 - H20   
   132    137      1 ;    H16 - H21   
   136    138      1 ;    H20 - H22   
   137    138      1 ;    H21 - H22   
   138    139      1 ;    H22 - H23   
   138    140      1 ;    H22 - H24   
   138    141      1 ;    H22 - H25   
   138    142      1 ;    H22 - H26   
   138    143      1 ;    H22 - H27   
   142    144      1 ;    H26 - H28   
   143    144      1 ;    H27 - H28   
   144    145      1 ;    H28 - H29   
   144    146      1 ;    H28 - H30   
   144    147      1 ;    H28 - H31   
   144    148      1 ;    H28 - H32   
   144    149      1 ;    H28 - H33   
   144    150      1 ;    H28 - H34   
   151    155      1 ;     C1 - C5    
   151    171      1 ;     C1 - H5    
   151    172      1 ;     C1 - H6    
   151    173      1 ;     C1 - H7    
   151    174      1 ;     C1 - H8    
   151    175      1 ;     C1 - H9    
   152    156      1 ;     C2 - C6    
   152    157      1 ;     C2 - C7    
   152    176      1 ;     C2 - H10   
   153    155      1 ;     C3 - C5    
   153    167      1 ;     C3 - H1    
   153    168      1 ;     C3 - H2    
   153    169      1 ;     C3 - H3    
   153    174      1 ;     C3 - H8    
   153    175      1 ;     C3 - H9    
   154    158      1 ;     C4 - C8    
   154    167      1 ;     C4 - H1    
   154    168      1 ;     C4 - H2    
   154    169      1 ;     C4 - H3    
   154    171      1 ;     C4 - H5    
   154    172      1 ;     C4 - H6    
   154    173      1 ;     C4 - H7    
   154    177      1 ;     C4 - H11   
   154    178      1 ;     C4 - H12   
   154    179      1 ;     C4 - H13   
   154    180      1 ;     C4 - H14   
   154    181      1 ;     C4 - H15   
   155    159      1 ;     C5 - C9    
   155    160      1 ;     C5 - C10   
   155    170      1 ;     C5 - H4    
   155    182      1 ;     C5 - H16   
   156    158      1 ;     C6 - C8    
   156    174      1 ;     C6 - H8    
   156    175      1 ;     C6 - H9    
   156    180      1 ;     C6 - H14   
   156    181      1 ;     C6 - H15   
   157    161      1 ;     C7 - C11   
   157    174      1 ;     C7 - H8    
   157    175      1 ;     C7 - H9    
   157    177      1 ;     C7 - H11   
   157    178      1 ;     C7 - H12   
   157    179      1 ;     C7 - H13   
   157    183      1 ;     C7 - H17   
   157    184      1 ;     C7 - H18   
   157    185      1 ;     C7 - H19   
   157    186      1 ;     C7 - H20   
   157    187      1 ;     C7 - H21   
   158    162      1 ;     C8 - C12   
   158    163      1 ;     C8 - C13   
   158    176      1 ;     C8 - H10   
   158    188      1 ;     C8 - H22   
   159    161      1 ;     C9 - C11   
   159    180      1 ;     C9 - H14   
   159    181      1 ;     C9 - H15   
   159    186      1 ;     C9 - H20   
   159    187      1 ;     C9 - H21   
   160    164      1 ;    C10 - C14   
   160    180      1 ;    C10 - H14   
   160    181      1 ;    C10 - H15   
   160    183      1 ;    C10 - H17   
   160    184      1 ;    C10 - H18   
   160    185      1 ;    C10 - H19   
   160    189      1 ;    C10 - H23   
   160    190      1 ;    C10 - H24   
   160    191      1 ;    C10 - H25   
   160    192      1 ;    C10 - H26   
   160    193      1 ;    C10 - H27   
   161    165      1 ;    C11 - C15   
   161    166      1 ;    C11 - C16   
   161    182      1 ;    C11 - H16   
   161    194      1 ;    C11 - H28   
   162    164      1 ;    C12 - C14   
   162    186      1 ;    C12 - H20   
   162    187      1 ;    C12 - H21   
   162    192      1 ;    C12 - H26   
   162    193      1 ;    C12 - H27   
   163    186      1 ;    C13 - H20   
   163    187      1 ;    C13 - H21   
   163    189      1 ;    C13 - H23   
   163    190      1 ;    C13 - H24   
   163    191      1 ;    C13 - H25   
   163    195      1 ;    C13 - H29   
   163    196      1 ;    C13 - H30   
   163    197      1 ;    C13 - H31   
   163    198      1 ;    C13 - H32   
   163    199      1 ;    C13 - H33   
   163    200      1 ;    C13 - H34   
   164    188      1 ;    C14 - H22   
   165    192      1 ;    C15 - H26   
   165    193      1 ;    C15 - H27   
   165    198      1 ;    C15 - H32   
   165    199      1 ;    C15 - H33   
   165    200      1 ;    C15 - H34   
   166    192      1 ;    C16 - H26   
   166    193      1 ;    C16 - H27   
   166    195      1 ;    C16 - H29   
   166    196      1 ;    C16 - H30   
   166    197      1 ;    C16 - H31   
   167    170      1 ;     H1 - H4    
   168    170      1 ;     H2 - H4    
   169    170      1 ;     H3 - H4    
   170    171      1 ;     H4 - H5    
   170    172      1 ;     H4 - H6    
   170    173      1 ;     H4 - H7    
   170    174      1 ;     H4 - H8    
   170    175      1 ;     H4 - H9    
   174    176      1 ;     H8 - H10   
   175    176      1 ;     H9 - H10   
   176    177      1 ;    H10 - H11   
   176    178      1 ;    H10 - H12   
   176    179      1 ;    H10 - H13   
   176    180      1 ;    H10 - H14   
   176    181      1 ;    H10 - H15   
   180    182      1 ;    H14 - H16   
   181    182      1 ;    H15 - H16   
   182    183      1 ;    H16 - H17   
   182    184      1 ;    H16 - H18   
   182    185      1 ;    H16 - H19   
   182    186      1 ;    H16 - H20   
   182    187      1 ;    H16 - H21   
   186    188      1 ;    H20 - H22   
   187    188      1 ;    H21 - H22   
   188    189      1 ;    H22 - H23   
   188    190      1 ;    H22 - H24   
   188    191      1 ;    H22 - H25   
   188    192      1 ;    H22 - H26   
   188    193      1 ;    H22 - H27   
   192    194      1 ;    H26 - H28   
   193    194      1 ;    H27 - H28   
   194    195      1 ;    H28 - H29   
   194    196      1 ;    H28 - H30   
   194    197      1 ;    H28 - H31   
   194    198      1 ;    H28 - H32   
   194    199      1 ;    H28 - H33   
   194    200      1 ;    H28 - H34   
   201    205      1 ;     C1 - C5    
   201    221      1 ;     C1 - H5    
   201    222      1 ;     C1 - H6    
   201    223      1 ;     C1 - H7    
   201    224      1 ;     C1 - H8    
   201    225      1 ;     C1 - H9    
   202    206      1 ;     C2 - C6    
   202    207      1 ;     C2 - C7    
   202    226      1 ;     C2 - H10   
   203    205      1 ;     C3 - C5    
   203    217      1 ;     C3 - H1    
   203    218      1 ;     C3 - H2    
   203    219      1 ;     C3 - H3    
   203    224      1 ;     C3 - H8    
   203    225      1 ;     C3 - H9    
   204    208      1 ;     C4 - C8    
   204    217      1 ;     C4 - H1    
   204    218      1 ;     C4 - H2    
   204    219      1 ;     C4 - H3    
   204    221      1 ;     C4 - H5    
   204    222      1 ;     C4 - H6    
   204    223      1 ;     C4 - H7    
   204    227      1 ;     C4 - H11   
   204    228      1 ;     C4 - H12   
   204    229      1 ;     C4 - H13   
   204    230      1 ;     C4 - H14   
   204    231      1 ;     C4 - H15   
   205    209      1 ;     C5 - C9    
   205    210      1 ;     C5 - C10   
   205    220      1 ;     C5 - H4    
   205    232      1 ;     C5 - H16   
   206    208      1 ;     C6 - C8    
   206    224      1 ;     C6 - H8    
   206    225      1 ;     C6 - H9    
   206    230      1 ;     C6 - H14   
   206    231      1 ;     C6 - H15   
   207    211      1 ;     C7 - C11   
   207    224      1 ;     C7 - H8    
   207    225      1 ;     C7 - H9    
   207    227      1 ;     C7 - H11   
   207    228      1 ;     C7 - H12   
   207    229      1 ;     C7 - H13   
   207    233      1 ;     C7 - H17   
   207    234      1 ;     C7 - H18   
   207    235      1 ;     C7 - H19   
   207    236      1 ;     C7 - H20   
   207    237      1 ;     C7 - H21   
   208    212      1 ;     C8 - C12   
   208    213      1 ;     C8 - C13   
   208    226      1 ;     C8 - H10   
   208    238      1 ;     C8 - H22   
   209    211      1 ;     C9 - C11   
   209    230      1 ;     C9 - H14   
   209    231      1 ;     C9 - H15   
   209    236      1 ;     C9 - H20   
   209    237      1 ;     C9 - H21   
   210    214      1 ;    C10 - C14   
   210    230      1 ;    C10 - H14   
   210    231      1 ;    C10 - H15   
   210    233      1 ;    C10 - H17   
   210    234      1 ;    C10 - H18   
   210    235      1 ;    C10 - H19   
   210    239      1 ;    C10 - H23   
   210    240      1 ;    C10 - H24   
   210    241      1 ;    C10 - H25   
   210    242      1 ;    C10 - H26   
   210    243      1 ;    C10 - H27   
   211    215      1 ;    C11 - C15   
   211    216      1 ;    C11 - C16   
   211    232      1 ;    C11 - H16   
   211    244      1 ;    C11 - H28   
   212    214      1 ;    C12 - C14   
   212    236      1 ;    C12 - H20   
   212    237      1 ;    C12 - H21   
   212    242      1 ;    C12 - H26   
   212    243      1 ;    C12 - H27   
   213    236      1 ;    C13 - H20   
   213    237      1 ;    C13 - H21   
   213    239      1 ;    C13 - H23   
   213    240      1 ;    C13 - H24   
   213    241      1 ;    C13 - H25   
   213    245      1 ;    C13 - H29   
   213    246      1 ;    C13 - H30   
   213    247      1 ;    C13 - H31   
   213    248      1 ;    C13 - H32   
   213    249      1 ;    C13 - H33   
   213    250      1 ;    C13 - H34   
   214    238      1 ;    C14 - H22   
   215    242      1 ;    C15 - H26   
   215    243      1 ;    C15 - H27   
   215    248      1 ;    C15 - H32   
   215    249      1 ;    C15 - H33   
   215    250      1 ;    C15 - H34   
   216    242      1 ;    C16 - H26   
   216    243      1 ;    C16 - H27   
   216    245      1 ;    C16 - H29   
   216    246      1 ;    C16 - H30   
   216    247      1 ;    C16 - H31   
   217    220      1 ;     H1 - H4    
   218    220      1 ;     H2 - H4    
   219    220      1 ;     H3 - H4    
   220    221      1 ;     H4 - H5    
   220    222      1 ;     H4 - H6    
   220    223      1 ;     H4 - H7    
   220    224      1 ;     H4 - H8    
   220    225      1 ;     H4 - H9    
   224    226      1 ;     H8 - H10   
   225    226      1 ;     H9 - H10   
   226    227      1 ;    H10 - H11   
   226    228      1 ;    H10 - H12   
   226    229      1 ;    H10 - H13   
   226    230      1 ;    H10 - H14   
   226    231      1 ;    H10 - H15   
   230    232      1 ;    H14 - H16   
   231    232      1 ;    H15 - H16   
   232    233      1 ;    H16 - H17   
   232    234      1 ;    H16 - H18   
   232    235      1 ;    H16 - H19   
   232    236      1 ;    H16 - H20   
   232    237      1 ;    H16 - H21   
   236    238      1 ;    H20 - H22   
   237    238      1 ;    H21 - H22   
   238    239      1 ;    H22 - H23   
   238    240      1 ;    H22 - H24   
   238    241      1 ;    H22 - H25   
   238    242      1 ;    H22 - H26   
   238    243      1 ;    H22 - H27   
   242    244      1 ;    H26 - H28   
   243    244      1 ;    H27 - H28   
   244    245      1 ;    H28 - H29   
   244    246      1 ;    H28 - H30   
   244    247      1 ;    H28 - H31   
   244    248      1 ;    H28 - H32   
   244    249      1 ;    H28 - H33   
   244    250      1 ;    H28 - H34   
   251    255      1 ;     C1 - C5    
   251    271      1 ;     C1 - H5    
   251    272      1 ;     C1 - H6    
   251    273      1 ;     C1 - H7    
   251    274      1 ;     C1 - H8    
   251    275      1 ;     C1 - H9    
   252    256      1 ;     C2 - C6    
   252    257      1 ;     C2 - C7    
   252    276      1 ;     C2 - H10   
   253    255      1 ;     C3 - C5    
   253    267      1 ;     C3 - H1    
   253    268      1 ;     C3 - H2    
   253    269      1 ;     C3 - H3    
   253    274      1 ;     C3 - H8    
   253    275      1 ;     C3 - H9    
   254    258      1 ;     C4 - C8    
   254    267      1 ;     C4 - H1    
   254    268      1 ;     C4 - H2    
   254    269      1 ;     C4 - H3    
   254    271      1 ;     C4 - H5    
   254    272      1 ;     C4 - H6    
   254    273      1 ;     C4 - H7    
   254    277      1 ;     C4 - H11   
   254    278      1 ;     C4 - H12   
   254    279      1 ;     C4 - H13   
   254    280      1 ;     C4 - H14   
   254    281      1 ;     C4 - H15   
   255    259      1 ;     C5 - C9    
   255    260      1 ;     C5 - C10   
   255    270      1 ;     C5 - H4    
   255    282      1 ;     C5 - H16   
   256    258      1 ;     C6 - C8    
   256    274      1 ;     C6 - H8    
   256    275      1 ;     C6 - H9    
   256    280      1 ;     C6 - H14   
   256    281      1 ;     C6 - H15   
   257    261      1 ;     C7 - C11   
   257    274      1 ;     C7 - H8    
   257    275      1 ;     C7 - H9    
   257    277      1 ;     C7 - H11   
   257    278      1 ;     C7 - H12   
   257    279      1 ;     C7 - H13   
   257    283      1 ;     C7 - H17   
   257    284      1 ;     C7 - H18   
   257    285      1 ;     C7 - H19   
   257    286      1 ;     C7 - H20   
   257    287      1 ;     C7 - H21   
   258    262      1 ;     C8 - C12   
   258    263      1 ;     C8 - C13   
   258    276      1 ;     C8 - H10   
   258    288      1 ;     C8 - H22   
   259    261      1 ;     C9 - C11   
   259    280      1 ;     C9 - H14   
   259    281      1 ;     C9 - H15   
   259    286      1 ;     C9 - H20   
   259    287      1 ;     C9 - H21   
   260    264      1 ;    C10 - C14   
   260    280      1 ;    C10 - H14   
   260    281      1 ;    C10 - H15   
   260    283      1 ;    C10 - H17   
   260    284      1 ;    C10 - H18   
   260    285      1 ;    C10 - H19   
   260    289      1 ;    C10 - H23   
   260    290      1 ;    C10 - H24   
   260    291      1 ;    C10 - H25   
   260    292      1 ;    C10 - H26   
   260    293      1 ;    C10 - H27   
   261    265      1 ;    C11 - C15   
   261    266      1 ;    C11 - C16   
   261    282      1 ;    C11 - H16   
   261    294      1 ;    C11 - H28   
   262    264      1 ;    C12 - C14   
   262    286      1 ;    C12 - H20   
   262    287      1 ;    C12 - H21   
   262    292      1 ;    C12 - H26   
   262    293      1 ;    C12 - H27   
   263    286      1 ;    C13 - H20   
   263    287      1 ;    C13 - H21   
   263    289      1 ;    C13 - H23   
   263    290      1 ;    C13 - H24   
   263    291      1 ;    C13 - H25   
   263    295      1 ;    C13 - H29   
   263    296      1 ;    C13 - H30   
   263    297      1 ;    C13 - H31   
   263    298      1 ;    C13 - H32   
   263    299      1 ;    C13 - H33   
   263    300      1 ;    C13 - H34   
   264    288      1 ;    C14 - H22   
   265    292      1 ;    C15 - H26   
   265    293      1 ;    C15 - H27   
   265    298      1 ;    C15 - H32   
   265    299      1 ;    C15 - H33   
   265    300      1 ;    C15 - H34   
   266    292      1 ;    C16 - H26   
   266    293      1 ;    C16 - H27   
   266    295      1 ;    C16 - H29   
   266    296      1 ;    C16 - H30   
   266    297      1 ;    C16 - H31   
   267    270      1 ;     H1 - H4    
   268    270      1 ;     H2 - H4    
   269    270      1 ;     H3 - H4    
   270    271      1 ;     H4 - H5    
   270    272      1 ;     H4 - H6    
   270    273      1 ;     H4 - H7    
   270    274      1 ;     H4 - H8    
   270    275      1 ;     H4 - H9    
   274    276      1 ;     H8 - H10   
   275    276      1 ;     H9 - H10   
   276    277      1 ;    H10 - H11   
   276    278      1 ;    H10 - H12   
   276    279      1 ;    H10 - H13   
   276    280      1 ;    H10 - H14   
   276    281      1 ;    H10 - H15   
   280    282      1 ;    H14 - H16   
   281    282      1 ;    H15 - H16   
   282    283      1 ;    H16 - H17   
   282    284      1 ;    H16 - H18   
   282    285      1 ;    H16 - H19   
   282    286      1 ;    H16 - H20   
   282    287      1 ;    H16 - H21   
   286    288      1 ;    H20 - H22   
   287    288      1 ;    H21 - H22   
   288    289      1 ;    H22 - H23   
   288    290      1 ;    H22 - H24   
   288    291      1 ;    H22 - H25   
   288    292      1 ;    H22 - H26   
   288    293      1 ;    H22 - H27   
   292    294      1 ;    H26 - H28   
   293    294      1 ;    H27 - H28   
   294    295      1 ;    H28 - H29   
   294    296      1 ;    H28 - H30   
   294    297      1 ;    H28 - H31   
   294    298      1 ;    H28 - H32   
   294    299      1 ;    H28 - H33   
   294    300      1 ;    H28 - H34   
   301    305      1 ;     C1 - C5    
   301    321      1 ;     C1 - H5    
   301    322      1 ;     C1 - H6    
   301    323      1 ;     C1 - H7    
   301    324      1 ;     C1 - H8    
   301    325      1 ;     C1 - H9    
   302    306      1 ;     C2 - C6    
   302    307      1 ;     C2 - C7    
   302    326      1 ;     C2 - H10   
   303    305      1 ;     C3 - C5    
   303    317      1 ;     C3 - H1    
   303    318      1 ;     C3 - H2    
   303    319      1 ;     C3 - H3    
   303    324      1 ;     C3 - H8    
   303    325      1 ;     C3 - H9    
   304    308      1 ;     C4 - C8    
   304    317      1 ;     C4 - H1    
   304    318      1 ;     C4 - H2    
   304    319      1 ;     C4 - H3    
   304    321      1 ;     C4 - H5    
   304    322      1 ;     C4 - H6    
   304    323      1 ;     C4 - H7    
   304    327      1 ;     C4 - H11   
   304    328      1 ;     C4 - H12   
   304    329      1 ;     C4 - H13   
   304    330      1 ;     C4 - H14   
   304    331      1 ;     C4 - H15   
   305    309      1 ;     C5 - C9    
   305    310      1 ;     C5 - C10   
   305    320      1 ;     C5 - H4    
   305    332      1 ;     C5 - H16   
   306    308      1 ;     C6 - C8    
   306    324      1 ;     C6 - H8    
   306    325      1 ;     C6 - H9    
   306    330      1 ;     C6 - H14   
   306    331      1 ;     C6 - H15   
   307    311      1 ;     C7 - C11   
   307    324      1 ;     C7 - H8    
   307    325      1 ;     C7 - H9    
   307    327      1 ;     C7 - H11   
   307    328      1 ;     C7 - H12   
   307    329      1 ;     C7 - H13   
   307    333      1 ;     C7 - H17   
   307    334      1 ;     C7 - H18   
   307    335      1 ;     C7 - H19   
   307    336      1 ;     C7 - H20   
   307    337      1 ;     C7 - H21   
   308    312      1 ;     C8 - C12   
   308    313      1 ;     C8 - C13   
   308    326      1 ;     C8 - H10   
   308    338      1 ;     C8 - H22   
   309    311      1 ;     C9 - C11   
   309    330      1 ;     C9 - H14   
   309    331      1 ;     C9 - H15   
   309    336      1 ;     C9 - H20   
   309    337      1 ;     C9 - H21   
   310    314      1 ;    C10 - C14   
   310    330      1 ;    C10 - H14   
   310    331      1 ;    C10 - H15   
   310    333      1 ;    C10 - H17   
   310    334      1 ;    C10 - H18   
   310    335      1 ;    C10 - H19   
   310    339      1 ;    C10 - H23   
   310    340      1 ;    C10 - H24   
   310    341      1 ;    C10 - H25   
   310    342      1 ;    C10 - H26   
   310    343      1 ;    C10 - H27   
   311    315      1 ;    C11 - C15   
   311    316      1 ;    C11 - C16   
   311    332      1 ;    C11 - H16   
   311    344      1 ;    C11 - H28   
   312    314      1 ;    C12 - C14   
   312    336      1 ;    C12 - H20   
   312    337      1 ;    C12 - H21   
   312    342      1 ;    C12 - H26   
   312    343      1 ;    C12 - H27   
   313    336      1 ;    C13 - H20   
   313    337      1 ;    C13 - H21   
   313    339      1 ;    C13 - H23   
   313    340      1 ;    C13 - H24   
   313    341      1 ;    C13 - H25   
   313    345      1 ;    C13 - H29   
   313    346      1 ;    C13 - H30   
   313    347      1 ;    C13 - H31   
   313    348      1 ;    C13 - H32   
   313    349      1 ;    C13 - H33   
   313    350      1 ;    C13 - H34   
   314    338      1 ;    C14 - H22   
   315    342      1 ;    C15 - H26   
   315    343      1 ;    C15 - H27   
   315    348      1 ;    C15 - H32   
   315    349      1 ;    C15 - H33   
   315    350      1 ;    C15 - H34   
   316    342      1 ;    C16 - H26   
   316    343      1 ;    C16 - H27   
   316    345      1 ;    C16 - H29   
   316    346      1 ;    C16 - H30   
   316    347      1 ;    C16 - H31   
   317    320      1 ;     H1 - H4    
   318    320      1 ;     H2 - H4    
   319    320      1 ;     H3 - H4    
   320    321      1 ;     H4 - H5    
   320    322      1 ;     H4 - H6    
   320    323      1 ;     H4 - H7    
   320    324      1 ;     H4 - H8    
   320    325      1 ;     H4 - H9    
   324    326      1 ;     H8 - H10   
   325    326      1 ;     H9 - H10   
   326    327      1 ;    H10 - H11   
   326    328      1 ;    H10 - H12   
   326    329      1 ;    H10 - H13   
   326    330      1 ;    H10 - H14   
   326    331      1 ;    H10 - H15   
   330    332      1 ;    H14 - H16   
   331    332      1 ;    H15 - H16   
   332    333      1 ;    H16 - H17   
   332    334      1 ;    H16 - H18   
   332    335      1 ;    H16 - H19   
   332    336      1 ;    H16 - H20   
   332    337      1 ;    H16 - H21   
   336    338      1 ;    H20 - H22   
   337    338      1 ;    H21 - H22   
   338    339      1 ;    H22 - H23   
   338    340      1 ;    H22 - H24   
   338    341      1 ;    H22 - H25   
   338    342      1 ;    H22 - H26   
   338    343      1 ;    H22 - H27   
   342    344      1 ;    H26 - H28   
   343    344      1 ;    H27 - H28   
   344    345      1 ;    H28 - H29   
   344    346      1 ;    H28 - H30   
   344    347      1 ;    H28 - H31   
   344    348      1 ;    H28 - H32   
   344    349      1 ;    H28 - H33   
   344    350      1 ;    H28 - H34   
   351    355      1 ;     C1 - C5    
   351    371      1 ;     C1 - H5    
   351    372      1 ;     C1 - H6    
   351    373      1 ;     C1 - H7    
   351    374      1 ;     C1 - H8    
   351    375      1 ;     C1 - H9    
   352    356      1 ;     C2 - C6    
   352    357      1 ;     C2 - C7    
   352    376      1 ;     C2 - H10   
   353    355      1 ;     C3 - C5    
   353    367      1 ;     C3 - H1    
   353    368      1 ;     C3 - H2    
   353    369      1 ;     C3 - H3    
   353    374      1 ;     C3 - H8    
   353    375      1 ;     C3 - H9    
   354    358      1 ;     C4 - C8    
   354    367      1 ;     C4 - H1    
   354    368      1 ;     C4 - H2    
   354    369      1 ;     C4 - H3    
   354    371      1 ;     C4 - H5    
   354    372      1 ;     C4 - H6    
   354    373      1 ;     C4 - H7    
   354    377      1 ;     C4 - H11   
   354    378      1 ;     C4 - H12   
   354    379      1 ;     C4 - H13   
   354    380      1 ;     C4 - H14   
   354    381      1 ;     C4 - H15   
   355    359      1 ;     C5 - C9    
   355    360      1 ;     C5 - C10   
   355    370      1 ;     C5 - H4    
   355    382      1 ;     C5 - H16   
   356    358      1 ;     C6 - C8    
   356    374      1 ;     C6 - H8    
   356    375      1 ;     C6 - H9    
   356    380      1 ;     C6 - H14   
   356    381      1 ;     C6 - H15   
   357    361      1 ;     C7 - C11   
   357    374      1 ;     C7 - H8    
   357    375      1 ;     C7 - H9    
   357    377      1 ;     C7 - H11   
   357    378      1 ;     C7 - H12   
   357    379      1 ;     C7 - H13   
   357    383      1 ;     C7 - H17   
   357    384      1 ;     C7 - H18   
   357    385      1 ;     C7 - H19   
   357    386      1 ;     C7 - H20   
   357    387      1 ;     C7 - H21   
   358    362      1 ;     C8 - C12   
   358    363      1 ;     C8 - C13   
   358    376      1 ;     C8 - H10   
   358    388      1 ;     C8 - H22   
   359    361      1 ;     C9 - C11   
   359    380      1 ;     C9 - H14   
   359    381      1 ;     C9 - H15   
   359    386      1 ;     C9 - H20   
   359    387      1 ;     C9 - H21   
   360    364      1 ;    C10 - C14   
   360    380      1 ;    C10 - H14   
   360    381      1 ;    C10 - H15   
   360    383      1 ;    C10 - H17   
   360    384      1 ;    C10 - H18   
   360    385      1 ;    C10 - H19   
   360    389      1 ;    C10 - H23   
   360    390      1 ;    C10 - H24   
   360    391      1 ;    C10 - H25   
   360    392      1 ;    C10 - H26   
   360    393      1 ;    C10 - H27   
   361    365      1 ;    C11 - C15   
   361    366      1 ;    C11 - C16   
   361    382      1 ;    C11 - H16   
   361    394      1 ;    C11 - H28   
   362    364      1 ;    C12 - C14   
   362    386      1 ;    C12 - H20   
   362    387      1 ;    C12 - H21   
   362    392      1 ;    C12 - H26   
   362    393      1 ;    C12 - H27   
   363    386      1 ;    C13 - H20   
   363    387      1 ;    C13 - H21   
   363    389      1 ;    C13 - H23   
   363    390      1 ;    C13 - H24   
   363    391      1 ;    C13 - H25   
   363    395      1 ;    C13 - H29   
   363    396      1 ;    C13 - H30   
   363    397      1 ;    C13 - H31   
   363    398      1 ;    C13 - H32   
   363    399      1 ;    C13 - H33   
   363    400      1 ;    C13 - H34   
   364    388      1 ;    C14 - H22   
   365    392      1 ;    C15 - H26   
   365    393      1 ;    C15 - H27   
   365    398      1 ;    C15 - H32   
   365    399      1 ;    C15 - H33   
   365    400      1 ;    C15 - H34   
   366    392      1 ;    C16 - H26   
   366    393      1 ;    C16 - H27   
   366    395      1 ;    C16 - H29   
   366    396      1 ;    C16 - H30   
   366    397      1 ;    C16 - H31   
   367    370      1 ;     H1 - H4    
   368    370      1 ;     H2 - H4    
   369    370      1 ;     H3 - H4    
   370    371      1 ;     H4 - H5    
   370    372      1 ;     H4 - H6    
   370    373      1 ;     H4 - H7    
   370    374      1 ;     H4 - H8    
   370    375      1 ;     H4 - H9    
   374    376      1 ;     H8 - H10   
   375    376      1 ;     H9 - H10   
   376    377      1 ;    H10 - H11   
   376    378      1 ;    H10 - H12   
   376    379      1 ;    H10 - H13   
   376    380      1 ;    H10 - H14   
   376    381      1 ;    H10 - H15   
   380    382      1 ;    H14 - H16   
   381    382      1 ;    H15 - H16   
   382    383      1 ;    H16 - H17   
   382    384      1 ;    H16 - H18   
   382    385      1 ;    H16 - H19   
   382    386      1 ;    H16 - H20   
   382    387      1 ;    H16 - H21   
   386    388      1 ;    H20 - H22   
   387    388      1 ;    H21 - H22   
   388    389      1 ;    H22 - H23   
   388    390      1 ;    H22 - H24   
   388    391      1 ;    H22 - H25   
   388    392      1 ;    H22 - H26   
   388    393      1 ;    H22 - H27   
   392    394      1 ;    H26 - H28   
   393    394      1 ;    H27 - H28   
   394    395      1 ;    H28 - H29   
   394    396      1 ;    H28 - H30   
   394    397      1 ;    H28 - H31   
   394    398      1 ;    H28 - H32   
   394    399      1 ;    H28 - H33   
   394    400      1 ;    H28 - H34   
   401    405      1 ;     C1 - C5    
   401    421      1 ;     C1 - H5    
   401    422      1 ;     C1 - H6    
   401    423      1 ;     C1 - H7    
   401    424      1 ;     C1 - H8    
   401    425      1 ;     C1 - H9    
   402    406      1 ;     C2 - C6    
   402    407      1 ;     C2 - C7    
   402    426      1 ;     C2 - H10   
   403    405      1 ;     C3 - C5    
   403    417      1 ;     C3 - H1    
   403    418      1 ;     C3 - H2    
   403    419      1 ;     C3 - H3    
   403    424      1 ;     C3 - H8    
   403    425      1 ;     C3 - H9    
   404    408      1 ;     C4 - C8    
   404    417      1 ;     C4 - H1    
   404    418      1 ;     C4 - H2    
   404    419      1 ;     C4 - H3    
   404    421      1 ;     C4 - H5    
   404    422      1 ;     C4 - H6    
   404    423      1 ;     C4 - H7    
   404    427      1 ;     C4 - H11   
   404    428      1 ;     C4 - H12   
   404    429      1 ;     C4 - H13   
   404    430      1 ;     C4 - H14   
   404    431      1 ;     C4 - H15   
   405    409      1 ;     C5 - C9    
   405    410      1 ;     C5 - C10   
   405    420      1 ;     C5 - H4    
   405    432      1 ;     C5 - H16   
   406    408      1 ;     C6 - C8    
   406    424      1 ;     C6 - H8    
   406    425      1 ;     C6 - H9    
   406    430      1 ;     C6 - H14   
   406    431      1 ;     C6 - H15   
   407    411      1 ;     C7 - C11   
   407    424      1 ;     C7 - H8    
   407    425      1 ;     C7 - H9    
   407    427      1 ;     C7 - H11   
   407    428      1 ;     C7 - H12   
   407    429      1 ;     C7 - H13   
   407    433      1 ;     C7 - H17   
   407    434      1 ;     C7 - H18   
   407    435      1 ;     C7 - H19   
   407    436      1 ;     C7 - H20   
   407    437      1 ;     C7 - H21   
   408    412      1 ;     C8 - C12   
   408    413      1 ;     C8 - C13   
   408    426      1 ;     C8 - H10   
   408    438      1 ;     C8 - H22   
   409    411      1 ;     C9 - C11   
   409    430      1 ;     C9 - H14   
   409    431      1 ;     C9 - H15   
   409    436      1 ;     C9 - H20   
   409    437      1 ;     C9 - H21   
   410    414      1 ;    C10 - C14   
   410    430      1 ;    C10 - H14   
   410    431      1 ;    C10 - H15   
   410    433      1 ;    C10 - H17   
   410    434      1 ;    C10 - H18   
   410    435      1 ;    C10 - H19   
   410    439      1 ;    C10 - H23   
   410    440      1 ;    C10 - H24   
   410    441      1 ;    C10 - H25   
   410    442      1 ;    C10 - H26   
   410    443      1 ;    C10 - H27   
   411    415      1 ;    C11 - C15   
   411    416      1 ;    C11 - C16   
   411    432      1 ;    C11 - H16   
   411    444      1 ;    C11 - H28   
   412    414      1 ;    C12 - C14   
   412    436      1 ;    C12 - H20   
   412    437      1 ;    C12 - H21   
   412    442      1 ;    C12 - H26   
   412    443      1 ;    C12 - H27   
   413    436      1 ;    C13 - H20   
   413    437      1 ;    C13 - H21   
   413    439      1 ;    C13 - H23   
   413    440      1 ;    C13 - H24   
   413    441      1 ;    C13 - H25   
   413    445      1 ;    C13 - H29   
   413    446      1 ;    C13 - H30   
   413    447      1 ;    C13 - H31   
   413    448      1 ;    C13 - H32   
   413    449      1 ;    C13 - H33   
   413    450      1 ;    C13 - H34   
   414    438      1 ;    C14 - H22   
   415    442      1 ;    C15 - H26   
   415    443      1 ;    C15 - H27   
   415    448      1 ;    C15 - H32   
   415    449      1 ;    C15 - H33   
   415    450      1 ;    C15 - H34   
   416    442      1 ;    C16 - H26   
   416    443      1 ;    C16 - H27   
   416    445      1 ;    C16 - H29   
   416    446      1 ;    C16 - H30   
   416    447      1 ;    C16 - H31   
   417    420      1 ;     H1 - H4    
   418    420      1 ;     H2 - H4    
   419    420      1 ;     H3 - H4    
   420    421      1 ;     H4 - H5    
   420    422      1 ;     H4 - H6    
   420    423      1 ;     H4 - H7    
   420    424      1 ;     H4 - H8    
   420    425      1 ;     H4 - H9    
   424    426      1 ;     H8 - H10   
   425    426      1 ;     H9 - H10   
   426    427      1 ;    H10 - H11   
   426    428      1 ;    H10 - H12   
   426    429      1 ;    H10 - H13   
   426    430      1 ;    H10 - H14   
   426    431      1 ;    H10 - H15   
   430    432      1 ;    H14 - H16   
   431    432      1 ;    H15 - H16   
   432    433      1 ;    H16 - H17   
   432    434      1 ;    H16 - H18   
   432    435      1 ;    H16 - H19   
   432    436      1 ;    H16 - H20   
   432    437      1 ;    H16 - H21   
   436    438      1 ;    H20 - H22   
   437    438      1 ;    H21 - H22   
   438    439      1 ;    H22 - H23   
   438    440      1 ;    H22 - H24   
   438    441      1 ;    H22 - H25   
   438    442      1 ;    H22 - H26   
   438    443      1 ;    H22 - H27   
   442    444      1 ;    H26 - H28   
   443    444      1 ;    H27 - H28   
   444    445      1 ;    H28 - H29   
   444    446      1 ;    H28 - H30   
   444    447      1 ;    H28 - H31   
   444    448      1 ;    H28 - H32   
   444    449      1 ;    H28 - H33   
   444    450      1 ;    H28 - H34   
   451    455      1 ;     C1 - C5    
   451    471      1 ;     C1 - H5    
   451    472      1 ;     C1 - H6    
   451    473      1 ;     C1 - H7    
   451    474      1 ;     C1 - H8    
   451    475      1 ;     C1 - H9    
   452    456      1 ;     C2 - C6    
   452    457      1 ;     C2 - C7    
   452    476      1 ;     C2 - H10   
   453    455      1 ;     C3 - C5    
   453    467      1 ;     C3 - H1    
   453    468      1 ;     C3 - H2    
   453    469      1 ;     C3 - H3    
   453    474      1 ;     C3 - H8    
   453    475      1 ;     C3 - H9    
   454    458      1 ;     C4 - C8    
   454    467      1 ;     C4 - H1    
   454    468      1 ;     C4 - H2    
   454    469      1 ;     C4 - H3    
   454    471      1 ;     C4 - H5    
   454    472      1 ;     C4 - H6    
   454    473      1 ;     C4 - H7    
   454    477      1 ;     C4 - H11   
   454    478      1 ;     C4 - H12   
   454    479      1 ;     C4 - H13   
   454    480      1 ;     C4 - H14   
   454    481      1 ;     C4 - H15   
   455    459      1 ;     C5 - C9    
   455    460      1 ;     C5 - C10   
   455    470      1 ;     C5 - H4    
   455    482      1 ;     C5 - H16   
   456    458      1 ;     C6 - C8    
   456    474      1 ;     C6 - H8    
   456    475      1 ;     C6 - H9    
   456    480      1 ;     C6 - H14   
   456    481      1 ;     C6 - H15   
   457    461      1 ;     C7 - C11   
   457    474      1 ;     C7 - H8    
   457    475      1 ;     C7 - H9    
   457    477      1 ;     C7 - H11   
   457    478      1 ;     C7 - H12   
   457    479      1 ;     C7 - H13   
   457    483      1 ;     C7 - H17   
   457    484      1 ;     C7 - H18   
   457    485      1 ;     C7 - H19   
   457    486      1 ;     C7 - H20   
   457    487      1 ;     C7 - H21   
   458    462      1 ;     C8 - C12   
   458    463      1 ;     C8 - C13   
   458    476      1 ;     C8 - H10   
   458    488      1 ;     C8 - H22   
   459    461      1 ;     C9 - C11   
   459    480      1 ;     C9 - H14   
   459    481      1 ;     C9 - H15   
   459    486      1 ;     C9 - H20   
   459    487      1 ;     C9 - H21   
   460    464      1 ;    C10 - C14   
   460    480      1 ;    C10 - H14   
   460    481      1 ;    C10 - H15   
   460    483      1 ;    C10 - H17   
   460    484      1 ;    C10 - H18   
   460    485      1 ;    C10 - H19   
   460    489      1 ;    C10 - H23   
   460    490      1 ;    C10 - H24   
   460    491      1 ;    C10 - H25   
   460    492      1 ;    C10 - H26   
   460    493      1 ;    C10 - H27   
   461    465      1 ;    C11 - C15   
   461    466      1 ;    C11 - C16   
   461    482      1 ;    C11 - H16   
   461    494      1 ;    C11 - H28   
   462    464      1 ;    C12 - C14   
   462    486      1 ;    C12 - H20   
   462    487      1 ;    C12 - H21   
   462    492      1 ;    C12 - H26   
   462    493      1 ;    C12 - H27   
   463    486      1 ;    C13 - H20   
   463    487      1 ;    C13 - H21   
   463    489      1 ;    C13 - H23   
   463    490      1 ;    C13 - H24   
   463    491      1 ;    C13 - H25   
   463    495      1 ;    C13 - H29   
   463    496      1 ;    C13 - H30   
   463    497      1 ;    C13 - H31   
   463    498      1 ;    C13 - H32   
   463    499      1 ;    C13 - H33   
   463    500      1 ;    C13 - H34   
   464    488      1 ;    C14 - H22   
   465    492      1 ;    C15 - H26   
   465    493      1 ;    C15 - H27   
   465    498      1 ;    C15 - H32   
   465    499      1 ;    C15 - H33   
   465    500      1 ;    C15 - H34   
   466    492      1 ;    C16 - H26   
   466    493      1 ;    C16 - H27   
   466    495      1 ;    C16 - H29   
   466    496      1 ;    C16 - H30   
   466    497      1 ;    C16 - H31   
   467    470      1 ;     H1 - H4    
   468    470      1 ;     H2 - H4    
   469    470      1 ;     H3 - H4    
   470    471      1 ;     H4 - H5    
   470    472      1 ;     H4 - H6    
   470    473      1 ;     H4 - H7    
   470    474      1 ;     H4 - H8    
   470    475      1 ;     H4 - H9    
   474    476      1 ;     H8 - H10   
   475    476      1 ;     H9 - H10   
   476    477      1 ;    H10 - H11   
   476    478      1 ;    H10 - H12   
   476    479      1 ;    H10 - H13   
   476    480      1 ;    H10 - H14   
   476    481      1 ;    H10 - H15   
   480    482      1 ;    H14 - H16   
   481    482      1 ;    H15 - H16   
   482    483      1 ;    H16 - H17   
   482    484      1 ;    H16 - H18   
   482    485      1 ;    H16 - H19   
   482    486      1 ;    H16 - H20   
   482    487      1 ;    H16 - H21   
   486    488      1 ;    H20 - H22   
   487    488      1 ;    H21 - H22   
   488    489      1 ;    H22 - H23   
   488    490      1 ;    H22 - H24   
   488    491      1 ;    H22 - H25   
   488    492      1 ;    H22 - H26   
   488    493      1 ;    H22 - H27   
   492    494      1 ;    H26 - H28   
   493    494      1 ;    H27 - H28   
   494    495      1 ;    H28 - H29   
   494    496      1 ;    H28 - H30   
   494    497      1 ;    H28 - H31   
   494    498      1 ;    H28 - H32   
   494    499      1 ;    H28 - H33   
   494    500      1 ;    H28 - H34   
   501    505      1 ;     C1 - C5    
   501    521      1 ;     C1 - H5    
   501    522      1 ;     C1 - H6    
   501    523      1 ;     C1 - H7    
   501    524      1 ;     C1 - H8    
   501    525      1 ;     C1 - H9    
   502    506      1 ;     C2 - C6    
   502    507      1 ;     C2 - C7    
   502    526      1 ;     C2 - H10   
   503    505      1 ;     C3 - C5    
   503    517      1 ;     C3 - H1    
   503    518      1 ;     C3 - H2    
   503    519      1 ;     C3 - H3    
   503    524      1 ;     C3 - H8    
   503    525      1 ;     C3 - H9    
   504    508      1 ;     C4 - C8    
   504    517      1 ;     C4 - H1    
   504    518      1 ;     C4 - H2    
   504    519      1 ;     C4 - H3    
   504    521      1 ;     C4 - H5    
   504    522      1 ;     C4 - H6    
   504    523      1 ;     C4 - H7    
   504    527      1 ;     C4 - H11   
   504    528      1 ;     C4 - H12   
   504    529      1 ;     C4 - H13   
   504    530      1 ;     C4 - H14   
   504    531      1 ;     C4 - H15   
   505    509      1 ;     C5 - C9    
   505    510      1 ;     C5 - C10   
   505    520      1 ;     C5 - H4    
   505    532      1 ;     C5 - H16   
   506    508      1 ;     C6 - C8    
   506    524      1 ;     C6 - H8    
   506    525      1 ;     C6 - H9    
   506    530      1 ;     C6 - H14   
   506    531      1 ;     C6 - H15   
   507    511      1 ;     C7 - C11   
   507    524      1 ;     C7 - H8    
   507    525      1 ;     C7 - H9    
   507    527      1 ;     C7 - H11   
   507    528      1 ;     C7 - H12   
   507    529      1 ;     C7 - H13   
   507    533      1 ;     C7 - H17   
   507    534      1 ;     C7 - H18   
   507    535      1 ;     C7 - H19   
   507    536      1 ;     C7 - H20   
   507    537      1 ;     C7 - H21   
   508    512      1 ;     C8 - C12   
   508    513      1 ;     C8 - C13   
   508    526      1 ;     C8 - H10   
   508    538      1 ;     C8 - H22   
   509    511      1 ;     C9 - C11   
   509    530      1 ;     C9 - H14   
   509    531      1 ;     C9 - H15   
   509    536      1 ;     C9 - H20   
   509    537      1 ;     C9 - H21   
   510    514      1 ;    C10 - C14   
   510    530      1 ;    C10 - H14   
   510    531      1 ;    C10 - H15   
   510    533      1 ;    C10 - H17   
   510    534      1 ;    C10 - H18   
   510    535      1 ;    C10 - H19   
   510    539      1 ;    C10 - H23   
   510    540      1 ;    C10 - H24   
   510    541      1 ;    C10 - H25   
   510    542      1 ;    C10 - H26   
   510    543      1 ;    C10 - H27   
   511    515      1 ;    C11 - C15   
   511    516      1 ;    C11 - C16   
   511    532      1 ;    C11 - H16   
   511    544      1 ;    C11 - H28   
   512    514      1 ;    C12 - C14   
   512    536      1 ;    C12 - H20   
   512    537      1 ;    C12 - H21   
   512    542      1 ;    C12 - H26   
   512    543      1 ;    C12 - H27   
   513    536      1 ;    C13 - H20   
   513    537      1 ;    C13 - H21   
   513    539      1 ;    C13 - H23   
   513    540      1 ;    C13 - H24   
   513    541      1 ;    C13 - H25   
   513    545      1 ;    C13 - H29   
   513    546      1 ;    C13 - H30   
   513    547      1 ;    C13 - H31   
   513    548      1 ;    C13 - H32   
   513    549      1 ;    C13 - H33   
   513    550      1 ;    C13 - H34   
   514    538      1 ;    C14 - H22   
   515    542      1 ;    C15 - H26   
   515    543      1 ;    C15 - H27   
   515    548      1 ;    C15 - H32   
   515    549      1 ;    C15 - H33   
   515    550      1 ;    C15 - H34   
   516    542      1 ;    C16 - H26   
   516    543      1 ;    C16 - H27   
   516    545      1 ;    C16 - H29   
   516    546      1 ;    C16 - H30   
   516    547      1 ;    C16 - H31   
   517    520      1 ;     H1 - H4    
   518    520      1 ;     H2 - H4    
   519    520      1 ;     H3 - H4    
   520    521      1 ;     H4 - H5    
   520    522      1 ;     H4 - H6    
   520    523      1 ;     H4 - H7    
   520    524      1 ;     H4 - H8    
   520    525      1 ;     H4 - H9    
   524    526      1 ;     H8 - H10   
   525    526      1 ;     H9 - H10   
   526    527      1 ;    H10 - H11   
   526    528      1 ;    H10 - H12   
   526    529      1 ;    H10 - H13   
   526    530      1 ;    H10 - H14   
   526    531      1 ;    H10 - H15   
   530    532      1 ;    H14 - H16   
   531    532      1 ;    H15 - H16   
   532    533      1 ;    H16 - H17   
   532    534      1 ;    H16 - H18   
   532    535      1 ;    H16 - H19   
   532    536      1 ;    H16 - H20   
   532    537      1 ;    H16 - H21   
   536    538      1 ;    H20 - H22   
   537    538      1 ;    H21 - H22   
   538    539      1 ;    H22 - H23   
   538    540      1 ;    H22 - H24   
   538    541      1 ;    H22 - H25   
   538    542      1 ;    H22 - H26   
   538    543      1 ;    H22 - H27   
   542    544      1 ;    H26 - H28   
   543    544      1 ;    H27 - H28   
   544    545      1 ;    H28 - H29   
   544    546      1 ;    H28 - H30   
   544    547      1 ;    H28 - H31   
   544    548      1 ;    H28 - H32   
   544    549      1 ;    H28 - H33   
   544    550      1 ;    H28 - H34   
   551    555      1 ;     C1 - C5    
   551    571      1 ;     C1 - H5    
   551    572      1 ;     C1 - H6    
   551    573      1 ;     C1 - H7    
   551    574      1 ;     C1 - H8    
   551    575      1 ;     C1 - H9    
   552    556      1 ;     C2 - C6    
   552    557      1 ;     C2 - C7    
   552    576      1 ;     C2 - H10   
   553    555      1 ;     C3 - C5    
   553    567      1 ;     C3 - H1    
   553    568      1 ;     C3 - H2    
   553    569      1 ;     C3 - H3    
   553    574      1 ;     C3 - H8    
   553    575      1 ;     C3 - H9    
   554    558      1 ;     C4 - C8    
   554    567      1 ;     C4 - H1    
   554    568      1 ;     C4 - H2    
   554    569      1 ;     C4 - H3    
   554    571      1 ;     C4 - H5    
   554    572      1 ;     C4 - H6    
   554    573      1 ;     C4 - H7    
   554    577      1 ;     C4 - H11   
   554    578      1 ;     C4 - H12   
   554    579      1 ;     C4 - H13   
   554    580      1 ;     C4 - H14   
   554    581      1 ;     C4 - H15   
   555    559      1 ;     C5 - C9    
   555    560      1 ;     C5 - C10   
   555    570      1 ;     C5 - H4    
   555    582      1 ;     C5 - H16   
   556    558      1 ;     C6 - C8    
   556    574      1 ;     C6 - H8    
   556    575      1 ;     C6 - H9    
   556    580      1 ;     C6 - H14   
   556    581      1 ;     C6 - H15   
   557    561      1 ;     C7 - C11   
   557    574      1 ;     C7 - H8    
   557    575      1 ;     C7 - H9    
   557    577      1 ;     C7 - H11   
   557    578      1 ;     C7 - H12   
   557    579      1 ;     C7 - H13   
   557    583      1 ;     C7 - H17   
   557    584      1 ;     C7 - H18   
   557    585      1 ;     C7 - H19   
   557    586      1 ;     C7 - H20   
   557    587      1 ;     C7 - H21   
   558    562      1 ;     C8 - C12   
   558    563      1 ;     C8 - C13   
   558    576      1 ;     C8 - H10   
   558    588      1 ;     C8 - H22   
   559    561      1 ;     C9 - C11   
   559    580      1 ;     C9 - H14   
   559    581      1 ;     C9 - H15   
   559    586      1 ;     C9 - H20   
   559    587      1 ;     C9 - H21   
   560    564      1 ;    C10 - C14   
   560    580      1 ;    C10 - H14   
   560    581      1 ;    C10 - H15   
   560    583      1 ;    C10 - H17   
   560    584      1 ;    C10 - H18   
   560    585      1 ;    C10 - H19   
   560    589      1 ;    C10 - H23   
   560    590      1 ;    C10 - H24   
   560    591      1 ;    C10 - H25   
   560    592      1 ;    C10 - H26   
   560    593      1 ;    C10 - H27   
   561    565      1 ;    C11 - C15   
   561    566      1 ;    C11 - C16   
   561    582      1 ;    C11 - H16   
   561    594      1 ;    C11 - H28   
   562    564      1 ;    C12 - C14   
   562    586      1 ;    C12 - H20   
   562    587      1 ;    C12 - H21   
   562    592      1 ;    C12 - H26   
   562    593      1 ;    C12 - H27   
   563    586      1 ;    C13 - H20   
   563    587      1 ;    C13 - H21   
   563    589      1 ;    C13 - H23   
   563    590      1 ;    C13 - H24   
   563    591      1 ;    C13 - H25   
   563    595      1 ;    C13 - H29   
   563    596      1 ;    C13 - H30   
   563    597      1 ;    C13 - H31   
   563    598      1 ;    C13 - H32   
   563    599      1 ;    C13 - H33   
   563    600      1 ;    C13 - H34   
   564    588      1 ;    C14 - H22   
   565    592      1 ;    C15 - H26   
   565    593      1 ;    C15 - H27   
   565    598      1 ;    C15 - H32   
   565    599      1 ;    C15 - H33   
   565    600      1 ;    C15 - H34   
   566    592      1 ;    C16 - H26   
   566    593      1 ;    C16 - H27   
   566    595      1 ;    C16 - H29   
   566    596      1 ;    C16 - H30   
   566    597      1 ;    C16 - H31   
   567    570      1 ;     H1 - H4    
   568    570      1 ;     H2 - H4    
   569    570      1 ;     H3 - H4    
   570    571      1 ;     H4 - H5    
   570    572      1 ;     H4 - H6    
   570    573      1 ;     H4 - H7    
   570    574      1 ;     H4 - H8    
   570    575      1 ;     H4 - H9    
   574    576      1 ;     H8 - H10   
   575    576      1 ;     H9 - H10   
   576    577      1 ;    H10 - H11   
   576    578      1 ;    H10 - H12   
   576    579      1 ;    H10 - H13   
   576    580      1 ;    H10 - H14   
   576    581      1 ;    H10 - H15   
   580    582      1 ;    H14 - H16   
   581    582      1 ;    H15 - H16   
   582    583      1 ;    H16 - H17   
   582    584      1 ;    H16 - H18   
   582    585      1 ;    H16 - H19   
   582    586      1 ;    H16 - H20   
   582    587      1 ;    H16 - H21   
   586    588      1 ;    H20 - H22   
   587    588      1 ;    H21 - H22   
   588    589      1 ;    H22 - H23   
   588    590      1 ;    H22 - H24   
   588    591      1 ;    H22 - H25   
   588    592      1 ;    H22 - H26   
   588    593      1 ;    H22 - H27   
   592    594      1 ;    H26 - H28   
   593    594      1 ;    H27 - H28   
   594    595      1 ;    H28 - H29   
   594    596      1 ;    H28 - H30   
   594    597      1 ;    H28 - H31   
   594    598      1 ;    H28 - H32   
   594    599      1 ;    H28 - H33   
   594    600      1 ;    H28 - H34   
   601    605      1 ;     C1 - C5    
   601    621      1 ;     C1 - H5    
   601    622      1 ;     C1 - H6    
   601    623      1 ;     C1 - H7    
   601    624      1 ;     C1 - H8    
   601    625      1 ;     C1 - H9    
   602    606      1 ;     C2 - C6    
   602    607      1 ;     C2 - C7    
   602    626      1 ;     C2 - H10   
   603    605      1 ;     C3 - C5    
   603    617      1 ;     C3 - H1    
   603    618      1 ;     C3 - H2    
   603    619      1 ;     C3 - H3    
   603    624      1 ;     C3 - H8    
   603    625      1 ;     C3 - H9    
   604    608      1 ;     C4 - C8    
   604    617      1 ;     C4 - H1    
   604    618      1 ;     C4 - H2    
   604    619      1 ;     C4 - H3    
   604    621      1 ;     C4 - H5    
   604    622      1 ;     C4 - H6    
   604    623      1 ;     C4 - H7    
   604    627      1 ;     C4 - H11   
   604    628      1 ;     C4 - H12   
   604    629      1 ;     C4 - H13   
   604    630      1 ;     C4 - H14   
   604    631      1 ;     C4 - H15   
   605    609      1 ;     C5 - C9    
   605    610      1 ;     C5 - C10   
   605    620      1 ;     C5 - H4    
   605    632      1 ;     C5 - H16   
   606    608      1 ;     C6 - C8    
   606    624      1 ;     C6 - H8    
   606    625      1 ;     C6 - H9    
   606    630      1 ;     C6 - H14   
   606    631      1 ;     C6 - H15   
   607    611      1 ;     C7 - C11   
   607    624      1 ;     C7 - H8    
   607    625      1 ;     C7 - H9    
   607    627      1 ;     C7 - H11   
   607    628      1 ;     C7 - H12   
   607    629      1 ;     C7 - H13   
   607    633      1 ;     C7 - H17   
   607    634      1 ;     C7 - H18   
   607    635      1 ;     C7 - H19   
   607    636      1 ;     C7 - H20   
   607    637      1 ;     C7 - H21   
   608    612      1 ;     C8 - C12   
   608    613      1 ;     C8 - C13   
   608    626      1 ;     C8 - H10   
   608    638      1 ;     C8 - H22   
   609    611      1 ;     C9 - C11   
   609    630      1 ;     C9 - H14   
   609    631      1 ;     C9 - H15   
   609    636      1 ;     C9 - H20   
   609    637      1 ;     C9 - H21   
   610    614      1 ;    C10 - C14   
   610    630      1 ;    C10 - H14   
   610    631      1 ;    C10 - H15   
   610    633      1 ;    C10 - H17   
   610    634      1 ;    C10 - H18   
   610    635      1 ;    C10 - H19   
   610    639      1 ;    C10 - H23   
   610    640      1 ;    C10 - H24   
   610    641      1 ;    C10 - H25   
   610    642      1 ;    C10 - H26   
   610    643      1 ;    C10 - H27   
   611    615      1 ;    C11 - C15   
   611    616      1 ;    C11 - C16   
   611    632      1 ;    C11 - H16   
   611    644      1 ;    C11 - H28   
   612    614      1 ;    C12 - C14   
   612    636      1 ;    C12 - H20   
   612    637      1 ;    C12 - H21   
   612    642      1 ;    C12 - H26   
   612    643      1 ;    C12 - H27   
   613    636      1 ;    C13 - H20   
   613    637      1 ;    C13 - H21   
   613    639      1 ;    C13 - H23   
   613    640      1 ;    C13 - H24   
   613    641      1 ;    C13 - H25   
   613    645      1 ;    C13 - H29   
   613    646      1 ;    C13 - H30   
   613    647      1 ;    C13 - H31   
   613    648      1 ;    C13 - H32   
   613    649      1 ;    C13 - H33   
   613    650      1 ;    C13 - H34   
   614    638      1 ;    C14 - H22   
   615    642      1 ;    C15 - H26   
   615    643      1 ;    C15 - H27   
   615    648      1 ;    C15 - H32   
   615    649      1 ;    C15 - H33   
   615    650      1 ;    C15 - H34   
   616    642      1 ;    C16 - H26   
   616    643      1 ;    C16 - H27   
   616    645      1 ;    C16 - H29   
   616    646      1 ;    C16 - H30   
   616    647      1 ;    C16 - H31   
   617    620      1 ;     H1 - H4    
   618    620      1 ;     H2 - H4    
   619    620      1 ;     H3 - H4    
   620    621      1 ;     H4 - H5    
   620    622      1 ;     H4 - H6    
   620    623      1 ;     H4 - H7    
   620    624      1 ;     H4 - H8    
   620    625      1 ;     H4 - H9    
   624    626      1 ;     H8 - H10   
   625    626      1 ;     H9 - H10   
   626    627      1 ;    H10 - H11   
   626    628      1 ;    H10 - H12   
   626    629      1 ;    H10 - H13   
   626    630      1 ;    H10 - H14   
   626    631      1 ;    H10 - H15   
   630    632      1 ;    H14 - H16   
   631    632      1 ;    H15 - H16   
   632    633      1 ;    H16 - H17   
   632    634      1 ;    H16 - H18   
   632    635      1 ;    H16 - H19   
   632    636      1 ;    H16 - H20   
   632    637      1 ;    H16 - H21   
   636    638      1 ;    H20 - H22   
   637    638      1 ;    H21 - H22   
   638    639      1 ;    H22 - H23   
   638    640      1 ;    H22 - H24   
   638    641      1 ;    H22 - H25   
   638    642      1 ;    H22 - H26   
   638    643      1 ;    H22 - H27   
   642    644      1 ;    H26 - H28   
   643    644      1 ;    H27 - H28   
   644    645      1 ;    H28 - H29   
   644    646      1 ;    H28 - H30   
   644    647      1 ;    H28 - H31   
   644    648      1 ;    H28 - H32   
   644    649      1 ;    H28 - H33   
   644    650      1 ;    H28 - H34   
   651    655      1 ;     C1 - C5    
   651    671      1 ;     C1 - H5    
   651    672      1 ;     C1 - H6    
   651    673      1 ;     C1 - H7    
   651    674      1 ;     C1 - H8    
   651    675      1 ;     C1 - H9    
   652    656      1 ;     C2 - C6    
   652    657      1 ;     C2 - C7    
   652    676      1 ;     C2 - H10   
   653    655      1 ;     C3 - C5    
   653    667      1 ;     C3 - H1    
   653    668      1 ;     C3 - H2    
   653    669      1 ;     C3 - H3    
   653    674      1 ;     C3 - H8    
   653    675      1 ;     C3 - H9    
   654    658      1 ;     C4 - C8    
   654    667      1 ;     C4 - H1    
   654    668      1 ;     C4 - H2    
   654    669      1 ;     C4 - H3    
   654    671      1 ;     C4 - H5    
   654    672      1 ;     C4 - H6    
   654    673      1 ;     C4 - H7    
   654    677      1 ;     C4 - H11   
   654    678      1 ;     C4 - H12   
   654    679      1 ;     C4 - H13   
   654    680      1 ;     C4 - H14   
   654    681      1 ;     C4 - H15   
   655    659      1 ;     C5 - C9    
   655    660      1 ;     C5 - C10   
   655    670      1 ;     C5 - H4    
   655    682      1 ;     C5 - H16   
   656    658      1 ;     C6 - C8    
   656    674      1 ;     C6 - H8    
   656    675      1 ;     C6 - H9    
   656    680      1 ;     C6 - H14   
   656    681      1 ;     C6 - H15   
   657    661      1 ;     C7 - C11   
   657    674      1 ;     C7 - H8    
   657    675      1 ;     C7 - H9    
   657    677      1 ;     C7 - H11   
   657    678      1 ;     C7 - H12   
   657    679      1 ;     C7 - H13   
   657    683      1 ;     C7 - H17   
   657    684      1 ;     C7 - H18   
   657    685      1 ;     C7 - H19   
   657    686      1 ;     C7 - H20   
   657    687      1 ;     C7 - H21   
   658    662      1 ;     C8 - C12   
   658    663      1 ;     C8 - C13   
   658    676      1 ;     C8 - H10   
   658    688      1 ;     C8 - H22   
   659    661      1 ;     C9 - C11   
   659    680      1 ;     C9 - H14   
   659    681      1 ;     C9 - H15   
   659    686      1 ;     C9 - H20   
   659    687      1 ;     C9 - H21   
   660    664      1 ;    C10 - C14   
   660    680      1 ;    C10 - H14   
   660    681      1 ;    C10 - H15   
   660    683      1 ;    C10 - H17   
   660    684      1 ;    C10 - H18   
   660    685      1 ;    C10 - H19   
   660    689      1 ;    C10 - H23   
   660    690      1 ;    C10 - H24   
   660    691      1 ;    C10 - H25   
   660    692      1 ;    C10 - H26   
   660    693      1 ;    C10 - H27   
   661    665      1 ;    C11 - C15   
   661    666      1 ;    C11 - C16   
   661    682      1 ;    C11 - H16   
   661    694      1 ;    C11 - H28   
   662    664      1 ;    C12 - C14   
   662    686      1 ;    C12 - H20   
   662    687      1 ;    C12 - H21   
   662    692      1 ;    C12 - H26   
   662    693      1 ;    C12 - H27   
   663    686      1 ;    C13 - H20   
   663    687      1 ;    C13 - H21   
   663    689      1 ;    C13 - H23   
   663    690      1 ;    C13 - H24   
   663    691      1 ;    C13 - H25   
   663    695      1 ;    C13 - H29   
   663    696      1 ;    C13 - H30   
   663    697      1 ;    C13 - H31   
   663    698      1 ;    C13 - H32   
   663    699      1 ;    C13 - H33   
   663    700      1 ;    C13 - H34   
   664    688      1 ;    C14 - H22   
   665    692      1 ;    C15 - H26   
   665    693      1 ;    C15 - H27   
   665    698      1 ;    C15 - H32   
   665    699      1 ;    C15 - H33   
   665    700      1 ;    C15 - H34   
   666    692      1 ;    C16 - H26   
   666    693      1 ;    C16 - H27   
   666    695      1 ;    C16 - H29   
   666    696      1 ;    C16 - H30   
   666    697      1 ;    C16 - H31   
   667    670      1 ;     H1 - H4    
   668    670      1 ;     H2 - H4    
   669    670      1 ;     H3 - H4    
   670    671      1 ;     H4 - H5    
   670    672      1 ;     H4 - H6    
   670    673      1 ;     H4 - H7    
   670    674      1 ;     H4 - H8    
   670    675      1 ;     H4 - H9    
   674    676      1 ;     H8 - H10   
   675    676      1 ;     H9 - H10   
   676    677      1 ;    H10 - H11   
   676    678      1 ;    H10 - H12   
   676    679      1 ;    H10 - H13   
   676    680      1 ;    H10 - H14   
   676    681      1 ;    H10 - H15   
   680    682      1 ;    H14 - H16   
   681    682      1 ;    H15 - H16   
   682    683      1 ;    H16 - H17   
   682    684      1 ;    H16 - H18   
   682    685      1 ;    H16 - H19   
   682    686      1 ;    H16 - H20   
   682    687      1 ;    H16 - H21   
   686    688      1 ;    H20 - H22   
   687    688      1 ;    H21 - H22   
   688    689      1 ;    H22 - H23   
   688    690      1 ;    H22 - H24   
   688    691      1 ;    H22 - H25   
   688    692      1 ;    H22 - H26   
   688    693      1 ;    H22 - H27   
   692    694      1 ;    H26 - H28   
   693    694      1 ;    H27 - H28   
   694    695      1 ;    H28 - H29   
   694    696      1 ;    H28 - H30   
   694    697      1 ;    H28 - H31   
   694    698      1 ;    H28 - H32   
   694    699      1 ;    H28 - H33   
   694    700      1 ;    H28 - H34   
   701    705      1 ;     C1 - C5    
   701    721      1 ;     C1 - H5    
   701    722      1 ;     C1 - H6    
   701    723      1 ;     C1 - H7    
   701    724      1 ;     C1 - H8    
   701    725      1 ;     C1 - H9    
   702    706      1 ;     C2 - C6    
   702    707      1 ;     C2 - C7    
   702    726      1 ;     C2 - H10   
   703    705      1 ;     C3 - C5    
   703    717      1 ;     C3 - H1    
   703    718      1 ;     C3 - H2    
   703    719      1 ;     C3 - H3    
   703    724      1 ;     C3 - H8    
   703    725      1 ;     C3 - H9    
   704    708      1 ;     C4 - C8    
   704    717      1 ;     C4 - H1    
   704    718      1 ;     C4 - H2    
   704    719      1 ;     C4 - H3    
   704    721      1 ;     C4 - H5    
   704    722      1 ;     C4 - H6    
   704    723      1 ;     C4 - H7    
   704    727      1 ;     C4 - H11   
   704    728      1 ;     C4 - H12   
   704    729      1 ;     C4 - H13   
   704    730      1 ;     C4 - H14   
   704    731      1 ;     C4 - H15   
   705    709      1 ;     C5 - C9    
   705    710      1 ;     C5 - C10   
   705    720      1 ;     C5 - H4    
   705    732      1 ;     C5 - H16   
   706    708      1 ;     C6 - C8    
   706    724      1 ;     C6 - H8    
   706    725      1 ;     C6 - H9    
   706    730      1 ;     C6 - H14   
   706    731      1 ;     C6 - H15   
   707    711      1 ;     C7 - C11   
   707    724      1 ;     C7 - H8    
   707    725      1 ;     C7 - H9    
   707    727      1 ;     C7 - H11   
   707    728      1 ;     C7 - H12   
   707    729      1 ;     C7 - H13   
   707    733      1 ;     C7 - H17   
   707    734      1 ;     C7 - H18   
   707    735      1 ;     C7 - H19   
   707    736      1 ;     C7 - H20   
   707    737      1 ;     C7 - H21   
   708    712      1 ;     C8 - C12   
   708    713      1 ;     C8 - C13   
   708    726      1 ;     C8 - H10   
   708    738      1 ;     C8 - H22   
   709    711      1 ;     C9 - C11   
   709    730      1 ;     C9 - H14   
   709    731      1 ;     C9 - H15   
   709    736      1 ;     C9 - H20   
   709    737      1 ;     C9 - H21   
   710    714      1 ;    C10 - C14   
   710    730      1 ;    C10 - H14   
   710    731      1 ;    C10 - H15   
   710    733      1 ;    C10 - H17   
   710    734      1 ;    C10 - H18   
   710    735      1 ;    C10 - H19   
   710    739      1 ;    C10 - H23   
   710    740      1 ;    C10 - H24   
   710    741      1 ;    C10 - H25   
   710    742      1 ;    C10 - H26   
   710    743      1 ;    C10 - H27   
   711    715      1 ;    C11 - C15   
   711    716      1 ;    C11 - C16   
   711    732      1 ;    C11 - H16   
   711    744      1 ;    C11 - H28   
   712    714      1 ;    C12 - C14   
   712    736      1 ;    C12 - H20   
   712    737      1 ;    C12 - H21   
   712    742      1 ;    C12 - H26   
   712    743      1 ;    C12 - H27   
   713    736      1 ;    C13 - H20   
   713    737      1 ;    C13 - H21   
   713    739      1 ;    C13 - H23   
   713    740      1 ;    C13 - H24   
   713    741      1 ;    C13 - H25   
   713    745      1 ;    C13 - H29   
   713    746      1 ;    C13 - H30   
   713    747      1 ;    C13 - H31   
   713    748      1 ;    C13 - H32   
   713    749      1 ;    C13 - H33   
   713    750      1 ;    C13 - H34   
   714    738      1 ;    C14 - H22   
   715    742      1 ;    C15 - H26   
   715    743      1 ;    C15 - H27   
   715    748      1 ;    C15 - H32   
   715    749      1 ;    C15 - H33   
   715    750      1 ;    C15 - H34   
   716    742      1 ;    C16 - H26   
   716    743      1 ;    C16 - H27   
   716    745      1 ;    C16 - H29   
   716    746      1 ;    C16 - H30   
   716    747      1 ;    C16 - H31   
   717    720      1 ;     H1 - H4    
   718    720      1 ;     H2 - H4    
   719    720      1 ;     H3 - H4    
   720    721      1 ;     H4 - H5    
   720    722      1 ;     H4 - H6    
   720    723      1 ;     H4 - H7    
   720    724      1 ;     H4 - H8    
   720    725      1 ;     H4 - H9    
   724    726      1 ;     H8 - H10   
   725    726      1 ;     H9 - H10   
   726    727      1 ;    H10 - H11   
   726    728      1 ;    H10 - H12   
   726    729      1 ;    H10 - H13   
   726    730      1 ;    H10 - H14   
   726    731      1 ;    H10 - H15   
   730    732      1 ;    H14 - H16   
   731    732      1 ;    H15 - H16   
   732    733      1 ;    H16 - H17   
   732    734      1 ;    H16 - H18   
   732    735      1 ;    H16 - H19   
   732    736      1 ;    H16 - H20   
   732    737      1 ;    H16 - H21   
   736    738      1 ;    H20 - H22   
   737    738      1 ;    H21 - H22   
   738    739      1 ;    H22 - H23   
   738    740      1 ;    H22 - H24   
   738    741      1 ;    H22 - H25   
   738    742      1 ;    H22 - H26   
   738    743      1 ;    H22 - H27   
   742    744      1 ;    H26 - H28   
   743    744      1 ;    H27 - H28   
   744    745      1 ;    H28 - H29   
   744    746      1 ;    H28 - H30   
   744    747      1 ;    H28 - H31   
   744    748      1 ;    H28 - H32   
   744    749      1 ;    H28 - H33   
   744    750      1 ;    H28 - H34   
   751    755      1 ;     C1 - C5    
   751    771      1 ;     C1 - H5    
   751    772      1 ;     C1 - H6    
   751    773      1 ;     C1 - H7    
   751    774      1 ;     C1 - H8    
   751    775      1 ;     C1 - H9    
   752    756      1 ;     C2 - C6    
   752    757      1 ;     C2 - C7    
   752    776      1 ;     C2 - H10   
   753    755      1 ;     C3 - C5    
   753    767      1 ;     C3 - H1    
   753    768      1 ;     C3 - H2    
   753    769      1 ;     C3 - H3    
   753    774      1 ;     C3 - H8    
   753    775      1 ;     C3 - H9    
   754    758      1 ;     C4 - C8    
   754    767      1 ;     C4 - H1    
   754    768      1 ;     C4 - H2    
   754    769      1 ;     C4 - H3    
   754    771      1 ;     C4 - H5    
   754    772      1 ;     C4 - H6    
   754    773      1 ;     C4 - H7    
   754    777      1 ;     C4 - H11   
   754    778      1 ;     C4 - H12   
   754    779      1 ;     C4 - H13   
   754    780      1 ;     C4 - H14   
   754    781      1 ;     C4 - H15   
   755    759      1 ;     C5 - C9    
   755    760      1 ;     C5 - C10   
   755    770      1 ;     C5 - H4    
   755    782      1 ;     C5 - H16   
   756    758      1 ;     C6 - C8    
   756    774      1 ;     C6 - H8    
   756    775      1 ;     C6 - H9    
   756    780      1 ;     C6 - H14   
   756    781      1 ;     C6 - H15   
   757    761      1 ;     C7 - C11   
   757    774      1 ;     C7 - H8    
   757    775      1 ;     C7 - H9    
   757    777      1 ;     C7 - H11   
   757    778      1 ;     C7 - H12   
   757    779      1 ;     C7 - H13   
   757    783      1 ;     C7 - H17   
   757    784      1 ;     C7 - H18   
   757    785      1 ;     C7 - H19   
   757    786      1 ;     C7 - H20   
   757    787      1 ;     C7 - H21   
   758    762      1 ;     C8 - C12   
   758    763      1 ;     C8 - C13   
   758    776      1 ;     C8 - H10   
   758    788      1 ;     C8 - H22   
   759    761      1 ;     C9 - C11   
   759    780      1 ;     C9 - H14   
   759    781      1 ;     C9 - H15   
   759    786      1 ;     C9 - H20   
   759    787      1 ;     C9 - H21   
   760    764      1 ;    C10 - C14   
   760    780      1 ;    C10 - H14   
   760    781      1 ;    C10 - H15   
   760    783      1 ;    C10 - H17   
   760    784      1 ;    C10 - H18   
   760    785      1 ;    C10 - H19   
   760    789      1 ;    C10 - H23   
   760    790      1 ;    C10 - H24   
   760    791      1 ;    C10 - H25   
   760    792      1 ;    C10 - H26   
   760    793      1 ;    C10 - H27   
   761    765      1 ;    C11 - C15   
   761    766      1 ;    C11 - C16   
   761    782      1 ;    C11 - H16   
   761    794      1 ;    C11 - H28   
   762    764      1 ;    C12 - C14   
   762    786      1 ;    C12 - H20   
   762    787      1 ;    C12 - H21   
   762    792      1 ;    C12 - H26   
   762    793      1 ;    C12 - H27   
   763    786      1 ;    C13 - H20   
   763    787      1 ;    C13 - H21   
   763    789      1 ;    C13 - H23   
   763    790      1 ;    C13 - H24   
   763    791      1 ;    C13 - H25   
   763    795      1 ;    C13 - H29   
   763    796      1 ;    C13 - H30   
   763    797      1 ;    C13 - H31   
   763    798      1 ;    C13 - H32   
   763    799      1 ;    C13 - H33   
   763    800      1 ;    C13 - H34   
   764    788      1 ;    C14 - H22   
   765    792      1 ;    C15 - H26   
   765    793      1 ;    C15 - H27   
   765    798      1 ;    C15 - H32   
   765    799      1 ;    C15 - H33   
   765    800      1 ;    C15 - H34   
   766    792      1 ;    C16 - H26   
   766    793      1 ;    C16 - H27   
   766    795      1 ;    C16 - H29   
   766    796      1 ;    C16 - H30   
   766    797      1 ;    C16 - H31   
   767    770      1 ;     H1 - H4    
   768    770      1 ;     H2 - H4    
   769    770      1 ;     H3 - H4    
   770    771      1 ;     H4 - H5    
   770    772      1 ;     H4 - H6    
   770    773      1 ;     H4 - H7    
   770    774      1 ;     H4 - H8    
   770    775      1 ;     H4 - H9    
   774    776      1 ;     H8 - H10   
   775    776      1 ;     H9 - H10   
   776    777      1 ;    H10 - H11   
   776    778      1 ;    H10 - H12   
   776    779      1 ;    H10 - H13   
   776    780      1 ;    H10 - H14   
   776    781      1 ;    H10 - H15   
   780    782      1 ;    H14 - H16   
   781    782      1 ;    H15 - H16   
   782    783      1 ;    H16 - H17   
   782    784      1 ;    H16 - H18   
   782    785      1 ;    H16 - H19   
   782    786      1 ;    H16 - H20   
   782    787      1 ;    H16 - H21   
   786    788      1 ;    H20 - H22   
   787    788      1 ;    H21 - H22   
   788    789      1 ;    H22 - H23   
   788    790      1 ;    H22 - H24   
   788    791      1 ;    H22 - H25   
   788    792      1 ;    H22 - H26   
   788    793      1 ;    H22 - H27   
   792    794      1 ;    H26 - H28   
   793    794      1 ;    H27 - H28   
   794    795      1 ;    H28 - H29   
   794    796      1 ;    H28 - H30   
   794    797      1 ;    H28 - H31   
   794    798      1 ;    H28 - H32   
   794    799      1 ;    H28 - H33   
   794    800      1 ;    H28 - H34   
   801    805      1 ;     C1 - C5    
   801    821      1 ;     C1 - H5    
   801    822      1 ;     C1 - H6    
   801    823      1 ;     C1 - H7    
   801    824      1 ;     C1 - H8    
   801    825      1 ;     C1 - H9    
   802    806      1 ;     C2 - C6    
   802    807      1 ;     C2 - C7    
   802    826      1 ;     C2 - H10   
   803    805      1 ;     C3 - C5    
   803    817      1 ;     C3 - H1    
   803    818      1 ;     C3 - H2    
   803    819      1 ;     C3 - H3    
   803    824      1 ;     C3 - H8    
   803    825      1 ;     C3 - H9    
   804    808      1 ;     C4 - C8    
   804    817      1 ;     C4 - H1    
   804    818      1 ;     C4 - H2    
   804    819      1 ;     C4 - H3    
   804    821      1 ;     C4 - H5    
   804    822      1 ;     C4 - H6    
   804    823      1 ;     C4 - H7    
   804    827      1 ;     C4 - H11   
   804    828      1 ;     C4 - H12   
   804    829      1 ;     C4 - H13   
   804    830      1 ;     C4 - H14   
   804    831      1 ;     C4 - H15   
   805    809      1 ;     C5 - C9    
   805    810      1 ;     C5 - C10   
   805    820      1 ;     C5 - H4    
   805    832      1 ;     C5 - H16   
   806    808      1 ;     C6 - C8    
   806    824      1 ;     C6 - H8    
   806    825      1 ;     C6 - H9    
   806    830      1 ;     C6 - H14   
   806    831      1 ;     C6 - H15   
   807    811      1 ;     C7 - C11   
   807    824      1 ;     C7 - H8    
   807    825      1 ;     C7 - H9    
   807    827      1 ;     C7 - H11   
   807    828      1 ;     C7 - H12   
   807    829      1 ;     C7 - H13   
   807    833      1 ;     C7 - H17   
   807    834      1 ;     C7 - H18   
   807    835      1 ;     C7 - H19   
   807    836      1 ;     C7 - H20   
   807    837      1 ;     C7 - H21   
   808    812      1 ;     C8 - C12   
   808    813      1 ;     C8 - C13   
   808    826      1 ;     C8 - H10   
   808    838      1 ;     C8 - H22   
   809    811      1 ;     C9 - C11   
   809    830      1 ;     C9 - H14   
   809    831      1 ;     C9 - H15   
   809    836      1 ;     C9 - H20   
   809    837      1 ;     C9 - H21   
   810    814      1 ;    C10 - C14   
   810    830      1 ;    C10 - H14   
   810    831      1 ;    C10 - H15   
   810    833      1 ;    C10 - H17   
   810    834      1 ;    C10 - H18   
   810    835      1 ;    C10 - H19   
   810    839      1 ;    C10 - H23   
   810    840      1 ;    C10 - H24   
   810    841      1 ;    C10 - H25   
   810    842      1 ;    C10 - H26   
   810    843      1 ;    C10 - H27   
   811    815      1 ;    C11 - C15   
   811    816      1 ;    C11 - C16   
   811    832      1 ;    C11 - H16   
   811    844      1 ;    C11 - H28   
   812    814      1 ;    C12 - C14   
   812    836      1 ;    C12 - H20   
   812    837      1 ;    C12 - H21   
   812    842      1 ;    C12 - H26   
   812    843      1 ;    C12 - H27   
   813    836      1 ;    C13 - H20   
   813    837      1 ;    C13 - H21   
   813    839      1 ;    C13 - H23   
   813    840      1 ;    C13 - H24   
   813    841      1 ;    C13 - H25   
   813    845      1 ;    C13 - H29   
   813    846      1 ;    C13 - H30   
   813    847      1 ;    C13 - H31   
   813    848      1 ;    C13 - H32   
   813    849      1 ;    C13 - H33   
   813    850      1 ;    C13 - H34   
   814    838      1 ;    C14 - H22   
   815    842      1 ;    C15 - H26   
   815    843      1 ;    C15 - H27   
   815    848      1 ;    C15 - H32   
   815    849      1 ;    C15 - H33   
   815    850      1 ;    C15 - H34   
   816    842      1 ;    C16 - H26   
   816    843      1 ;    C16 - H27   
   816    845      1 ;    C16 - H29   
   816    846      1 ;    C16 - H30   
   816    847      1 ;    C16 - H31   
   817    820      1 ;     H1 - H4    
   818    820      1 ;     H2 - H4    
   819    820      1 ;     H3 - H4    
   820    821      1 ;     H4 - H5    
   820    822      1 ;     H4 - H6    
   820    823      1 ;     H4 - H7    
   820    824      1 ;     H4 - H8    
   820    825      1 ;     H4 - H9    
   824    826      1 ;     H8 - H10   
   825    826      1 ;     H9 - H10   
   826    827      1 ;    H10 - H11   
   826    828      1 ;    H10 - H12   
   826    829      1 ;    H10 - H13   
   826    830      1 ;    H10 - H14   
   826    831      1 ;    H10 - H15   
   830    832      1 ;    H14 - H16   
   831    832      1 ;    H15 - H16   
   832    833      1 ;    H16 - H17   
   832    834      1 ;    H16 - H18   
   832    835      1 ;    H16 - H19   
   832    836      1 ;    H16 - H20   
   832    837      1 ;    H16 - H21   
   836    838      1 ;    H20 - H22   
   837    838      1 ;    H21 - H22   
   838    839      1 ;    H22 - H23   
   838    840      1 ;    H22 - H24   
   838    841      1 ;    H22 - H25   
   838    842      1 ;    H22 - H26   
   838    843      1 ;    H22 - H27   
   842    844      1 ;    H26 - H28   
   843    844      1 ;    H27 - H28   
   844    845      1 ;    H28 - H29   
   844    846      1 ;    H28 - H30   
   844    847      1 ;    H28 - H31   
   844    848      1 ;    H28 - H32   
   844    849      1 ;    H28 - H33   
   844    850      1 ;    H28 - H34   
   851    855      1 ;     C1 - C5    
   851    871      1 ;     C1 - H5    
   851    872      1 ;     C1 - H6    
   851    873      1 ;     C1 - H7    
   851    874      1 ;     C1 - H8    
   851    875      1 ;     C1 - H9    
   852    856      1 ;     C2 - C6    
   852    857      1 ;     C2 - C7    
   852    876      1 ;     C2 - H10   
   853    855      1 ;     C3 - C5    
   853    867      1 ;     C3 - H1    
   853    868      1 ;     C3 - H2    
   853    869      1 ;     C3 - H3    
   853    874      1 ;     C3 - H8    
   853    875      1 ;     C3 - H9    
   854    858      1 ;     C4 - C8    
   854    867      1 ;     C4 - H1    
   854    868      1 ;     C4 - H2    
   854    869      1 ;     C4 - H3    
   854    871      1 ;     C4 - H5    
   854    872      1 ;     C4 - H6    
   854    873      1 ;     C4 - H7    
   854    877      1 ;     C4 - H11   
   854    878      1 ;     C4 - H12   
   854    879      1 ;     C4 - H13   
   854    880      1 ;     C4 - H14   
   854    881      1 ;     C4 - H15   
   855    859      1 ;     C5 - C9    
   855    860      1 ;     C5 - C10   
   855    870      1 ;     C5 - H4    
   855    882      1 ;     C5 - H16   
   856    858      1 ;     C6 - C8    
   856    874      1 ;     C6 - H8    
   856    875      1 ;     C6 - H9    
   856    880      1 ;     C6 - H14   
   856    881      1 ;     C6 - H15   
   857    861      1 ;     C7 - C11   
   857    874      1 ;     C7 - H8    
   857    875      1 ;     C7 - H9    
   857    877      1 ;     C7 - H11   
   857    878      1 ;     C7 - H12   
   857    879      1 ;     C7 - H13   
   857    883      1 ;     C7 - H17   
   857    884      1 ;     C7 - H18   
   857    885      1 ;     C7 - H19   
   857    886      1 ;     C7 - H20   
   857    887      1 ;     C7 - H21   
   858    862      1 ;     C8 - C12   
   858    863      1 ;     C8 - C13   
   858    876      1 ;     C8 - H10   
   858    888      1 ;     C8 - H22   
   859    861      1 ;     C9 - C11   
   859    880      1 ;     C9 - H14   
   859    881      1 ;     C9 - H15   
   859    886      1 ;     C9 - H20   
   859    887      1 ;     C9 - H21   
   860    864      1 ;    C10 - C14   
   860    880      1 ;    C10 - H14   
   860    881      1 ;    C10 - H15   
   860    883      1 ;    C10 - H17   
   860    884      1 ;    C10 - H18   
   860    885      1 ;    C10 - H19   
   860    889      1 ;    C10 - H23   
   860    890      1 ;    C10 - H24   
   860    891      1 ;    C10 - H25   
   860    892      1 ;    C10 - H26   
   860    893      1 ;    C10 - H27   
   861    865      1 ;    C11 - C15   
   861    866      1 ;    C11 - C16   
   861    882      1 ;    C11 - H16   
   861    894      1 ;    C11 - H28   
   862    864      1 ;    C12 - C14   
   862    886      1 ;    C12 - H20   
   862    887      1 ;    C12 - H21   
   862    892      1 ;    C12 - H26   
   862    893      1 ;    C12 - H27   
   863    886      1 ;    C13 - H20   
   863    887      1 ;    C13 - H21   
   863    889      1 ;    C13 - H23   
   863    890      1 ;    C13 - H24   
   863    891      1 ;    C13 - H25   
   863    895      1 ;    C13 - H29   
   863    896      1 ;    C13 - H30   
   863    897      1 ;    C13 - H31   
   863    898      1 ;    C13 - H32   
   863    899      1 ;    C13 - H33   
   863    900      1 ;    C13 - H34   
   864    888      1 ;    C14 - H22   
   865    892      1 ;    C15 - H26   
   865    893      1 ;    C15 - H27   
   865    898      1 ;    C15 - H32   
   865    899      1 ;    C15 - H33   
   865    900      1 ;    C15 - H34   
   866    892      1 ;    C16 - H26   
   866    893      1 ;    C16 - H27   
   866    895      1 ;    C16 - H29   
   866    896      1 ;    C16 - H30   
   866    897      1 ;    C16 - H31   
   867    870      1 ;     H1 - H4    
   868    870      1 ;     H2 - H4    
   869    870      1 ;     H3 - H4    
   870    871      1 ;     H4 - H5    
   870    872      1 ;     H4 - H6    
   870    873      1 ;     H4 - H7    
   870    874      1 ;     H4 - H8    
   870    875      1 ;     H4 - H9    
   874    876      1 ;     H8 - H10   
   875    876      1 ;     H9 - H10   
   876    877      1 ;    H10 - H11   
   876    878      1 ;    H10 - H12   
   876    879      1 ;    H10 - H13   
   876    880      1 ;    H10 - H14   
   876    881      1 ;    H10 - H15   
   880    882      1 ;    H14 - H16   
   881    882      1 ;    H15 - H16   
   882    883      1 ;    H16 - H17   
   882    884      1 ;    H16 - H18   
   882    885      1 ;    H16 - H19   
   882    886      1 ;    H16 - H20   
   882    887      1 ;    H16 - H21   
   886    888      1 ;    H20 - H22   
   887    888      1 ;    H21 - H22   
   888    889      1 ;    H22 - H23   
   888    890      1 ;    H22 - H24   
   888    891      1 ;    H22 - H25   
   888    892      1 ;    H22 - H26   
   888    893      1 ;    H22 - H27   
   892    894      1 ;    H26 - H28   
   893    894      1 ;    H27 - H28   
   894    895      1 ;    H28 - H29   
   894    896      1 ;    H28 - H30   
   894    897      1 ;    H28 - H31   
   894    898      1 ;    H28 - H32   
   894    899      1 ;    H28 - H33   
   894    900      1 ;    H28 - H34   
   901    905      1 ;     C1 - C5    
   901    921      1 ;     C1 - H5    
   901    922      1 ;     C1 - H6    
   901    923      1 ;     C1 - H7    
   901    924      1 ;     C1 - H8    
   901    925      1 ;     C1 - H9    
   902    906      1 ;     C2 - C6    
   902    907      1 ;     C2 - C7    
   902    926      1 ;     C2 - H10   
   903    905      1 ;     C3 - C5    
   903    917      1 ;     C3 - H1    
   903    918      1 ;     C3 - H2    
   903    919      1 ;     C3 - H3    
   903    924      1 ;     C3 - H8    
   903    925      1 ;     C3 - H9    
   904    908      1 ;     C4 - C8    
   904    917      1 ;     C4 - H1    
   904    918      1 ;     C4 - H2    
   904    919      1 ;     C4 - H3    
   904    921      1 ;     C4 - H5    
   904    922      1 ;     C4 - H6    
   904    923      1 ;     C4 - H7    
   904    927      1 ;     C4 - H11   
   904    928      1 ;     C4 - H12   
   904    929      1 ;     C4 - H13   
   904    930      1 ;     C4 - H14   
   904    931      1 ;     C4 - H15   
   905    909      1 ;     C5 - C9    
   905    910      1 ;     C5 - C10   
   905    920      1 ;     C5 - H4    
   905    932      1 ;     C5 - H16   
   906    908      1 ;     C6 - C8    
   906    924      1 ;     C6 - H8    
   906    925      1 ;     C6 - H9    
   906    930      1 ;     C6 - H14   
   906    931      1 ;     C6 - H15   
   907    911      1 ;     C7 - C11   
   907    924      1 ;     C7 - H8    
   907    925      1 ;     C7 - H9    
   907    927      1 ;     C7 - H11   
   907    928      1 ;     C7 - H12   
   907    929      1 ;     C7 - H13   
   907    933      1 ;     C7 - H17   
   907    934      1 ;     C7 - H18   
   907    935      1 ;     C7 - H19   
   907    936      1 ;     C7 - H20   
   907    937      1 ;     C7 - H21   
   908    912      1 ;     C8 - C12   
   908    913      1 ;     C8 - C13   
   908    926      1 ;     C8 - H10   
   908    938      1 ;     C8 - H22   
   909    911      1 ;     C9 - C11   
   909    930      1 ;     C9 - H14   
   909    931      1 ;     C9 - H15   
   909    936      1 ;     C9 - H20   
   909    937      1 ;     C9 - H21   
   910    914      1 ;    C10 - C14   
   910    930      1 ;    C10 - H14   
   910    931      1 ;    C10 - H15   
   910    933      1 ;    C10 - H17   
   910    934      1 ;    C10 - H18   
   910    935      1 ;    C10 - H19   
   910    939      1 ;    C10 - H23   
   910    940      1 ;    C10 - H24   
   910    941      1 ;    C10 - H25   
   910    942      1 ;    C10 - H26   
   910    943      1 ;    C10 - H27   
   911    915      1 ;    C11 - C15   
   911    916      1 ;    C11 - C16   
   911    932      1 ;    C11 - H16   
   911    944      1 ;    C11 - H28   
   912    914      1 ;    C12 - C14   
   912    936      1 ;    C12 - H20   
   912    937      1 ;    C12 - H21   
   912    942      1 ;    C12 - H26   
   912    943      1 ;    C12 - H27   
   913    936      1 ;    C13 - H20   
   913    937      1 ;    C13 - H21   
   913    939      1 ;    C13 - H23   
   913    940      1 ;    C13 - H24   
   913    941      1 ;    C13 - H25   
   913    945      1 ;    C13 - H29   
   913    946      1 ;    C13 - H30   
   913    947      1 ;    C13 - H31   
   913    948      1 ;    C13 - H32   
   913    949      1 ;    C13 - H33   
   913    950      1 ;    C13 - H34   
   914    938      1 ;    C14 - H22   
   915    942      1 ;    C15 - H26   
   915    943      1 ;    C15 - H27   
   915    948      1 ;    C15 - H32   
   915    949      1 ;    C15 - H33   
   915    950      1 ;    C15 - H34   
   916    942      1 ;    C16 - H26   
   916    943      1 ;    C16 - H27   
   916    945      1 ;    C16 - H29   
   916    946      1 ;    C16 - H30   
   916    947      1 ;    C16 - H31   
   917    920      1 ;     H1 - H4    
   918    920      1 ;     H2 - H4    
   919    920      1 ;     H3 - H4    
   920    921      1 ;     H4 - H5    
   920    922      1 ;     H4 - H6    
   920    923      1 ;     H4 - H7    
   920    924      1 ;     H4 - H8    
   920    925      1 ;     H4 - H9    
   924    926      1 ;     H8 - H10   
   925    926      1 ;     H9 - H10   
   926    927      1 ;    H10 - H11   
   926    928      1 ;    H10 - H12   
   926    929      1 ;    H10 - H13   
   926    930      1 ;    H10 - H14   
   926    931      1 ;    H10 - H15   
   930    932      1 ;    H14 - H16   
   931    932      1 ;    H15 - H16   
   932    933      1 ;    H16 - H17   
   932    934      1 ;    H16 - H18   
   932    935      1 ;    H16 - H19   
   932    936      1 ;    H16 - H20   
   932    937      1 ;    H16 - H21   
   936    938      1 ;    H20 - H22   
   937    938      1 ;    H21 - H22   
   938    939      1 ;    H22 - H23   
   938    940      1 ;    H22 - H24   
   938    941      1 ;    H22 - H25   
   938    942      1 ;    H22 - H26   
   938    943      1 ;    H22 - H27   
   942    944      1 ;    H26 - H28   
   943    944      1 ;    H27 - H28   
   944    945      1 ;    H28 - H29   
   944    946      1 ;    H28 - H30   
   944    947      1 ;    H28 - H31   
   944    948      1 ;    H28 - H32   
   944    949      1 ;    H28 - H33   
   944    950      1 ;    H28 - H34   
   951    955      1 ;     C1 - C5    
   951    971      1 ;     C1 - H5    
   951    972      1 ;     C1 - H6    
   951    973      1 ;     C1 - H7    
   951    974      1 ;     C1 - H8    
   951    975      1 ;     C1 - H9    
   952    956      1 ;     C2 - C6    
   952    957      1 ;     C2 - C7    
   952    976      1 ;     C2 - H10   
   953    955      1 ;     C3 - C5    
   953    967      1 ;     C3 - H1    
   953    968      1 ;     C3 - H2    
   953    969      1 ;     C3 - H3    
   953    974      1 ;     C3 - H8    
   953    975      1 ;     C3 - H9    
   954    958      1 ;     C4 - C8    
   954    967      1 ;     C4 - H1    
   954    968      1 ;     C4 - H2    
   954    969      1 ;     C4 - H3    
   954    971      1 ;     C4 - H5    
   954    972      1 ;     C4 - H6    
   954    973      1 ;     C4 - H7    
   954    977      1 ;     C4 - H11   
   954    978      1 ;     C4 - H12   
   954    979      1 ;     C4 - H13   
   954    980      1 ;     C4 - H14   
   954    981      1 ;     C4 - H15   
   955    959      1 ;     C5 - C9    
   955    960      1 ;     C5 - C10   
   955    970      1 ;     C5 - H4    
   955    982      1 ;     C5 - H16   
   956    958      1 ;     C6 - C8    
   956    974      1 ;     C6 - H8    
   956    975      1 ;     C6 - H9    
   956    980      1 ;     C6 - H14   
   956    981      1 ;     C6 - H15   
   957    961      1 ;     C7 - C11   
   957    974      1 ;     C7 - H8    
   957    975      1 ;     C7 - H9    
   957    977      1 ;     C7 - H11   
   957    978      1 ;     C7 - H12   
   957    979      1 ;     C7 - H13   
   957    983      1 ;     C7 - H17   
   957    984      1 ;     C7 - H18   
   957    985      1 ;     C7 - H19   
   957    986      1 ;     C7 - H20   
   957    987      1 ;     C7 - H21   
   958    962      1 ;     C8 - C12   
   958    963      1 ;     C8 - C13   
   958    976      1 ;     C8 - H10   
   958    988      1 ;     C8 - H22   
   959    961      1 ;     C9 - C11   
   959    980      1 ;     C9 - H14   
   959    981      1 ;     C9 - H15   
   959    986      1 ;     C9 - H20   
   959    987      1 ;     C9 - H21   
   960    964      1 ;    C10 - C14   
   960    980      1 ;    C10 - H14   
   960    981      1 ;    C10 - H15   
   960    983      1 ;    C10 - H17   
   960    984      1 ;    C10 - H18   
   960    985      1 ;    C10 - H19   
   960    989      1 ;    C10 - H23   
   960    990      1 ;    C10 - H24   
   960    991      1 ;    C10 - H25   
   960    992      1 ;    C10 - H26   
   960    993      1 ;    C10 - H27   
   961    965      1 ;    C11 - C15   
   961    966      1 ;    C11 - C16   
   961    982      1 ;    C11 - H16   
   961    994      1 ;    C11 - H28   
   962    964      1 ;    C12 - C14   
   962    986      1 ;    C12 - H20   
   962    987      1 ;    C12 - H21   
   962    992      1 ;    C12 - H26   
   962    993      1 ;    C12 - H27   
   963    986      1 ;    C13 - H20   
   963    987      1 ;    C13 - H21   
   963    989      1 ;    C13 - H23   
   963    990      1 ;    C13 - H24   
   963    991      1 ;    C13 - H25   
   963    995      1 ;    C13 - H29   
   963    996      1 ;    C13 - H30   
   963    997      1 ;    C13 - H31   
   963    998      1 ;    C13 - H32   
   963    999      1 ;    C13 - H33   
   963   1000      1 ;    C13 - H34   
   964    988      1 ;    C14 - H22   
   965    992      1 ;    C15 - H26   
   965    993      1 ;    C15 - H27   
   965    998      1 ;    C15 - H32   
   965    999      1 ;    C15 - H33   
   965   1000      1 ;    C15 - H34   
   966    992      1 ;    C16 - H26   
   966    993      1 ;    C16 - H27   
   966    995      1 ;    C16 - H29   
   966    996      1 ;    C16 - H30   
   966    997      1 ;    C16 - H31   
   967    970      1 ;     H1 - H4    
   968    970      1 ;     H2 - H4    
   969    970      1 ;     H3 - H4    
   970    971      1 ;     H4 - H5    
   970    972      1 ;     H4 - H6    
   970    973      1 ;     H4 - H7    
   970    974      1 ;     H4 - H8    
   970    975      1 ;     H4 - H9    
   974    976      1 ;     H8 - H10   
   975    976      1 ;     H9 - H10   
   976    977      1 ;    H10 - H11   
   976    978      1 ;    H10 - H12   
   976    979      1 ;    H10 - H13   
   976    980      1 ;    H10 - H14   
   976    981      1 ;    H10 - H15   
   980    982      1 ;    H14 - H16   
   981    982      1 ;    H15 - H16   
   982    983      1 ;    H16 - H17   
   982    984      1 ;    H16 - H18   
   982    985      1 ;    H16 - H19   
   982    986      1 ;    H16 - H20   
   982    987      1 ;    H16 - H21   
   986    988      1 ;    H20 - H22   
   987    988      1 ;    H21 - H22   
   988    989      1 ;    H22 - H23   
   988    990      1 ;    H22 - H24   
   988    991      1 ;    H22 - H25   
   988    992      1 ;    H22 - H26   
   988    993      1 ;    H22 - H27   
   992    994      1 ;    H26 - H28   
   993    994      1 ;    H27 - H28   
   994    995      1 ;    H28 - H29   
   994    996      1 ;    H28 - H30   
   994    997      1 ;    H28 - H31   
   994    998      1 ;    H28 - H32   
   994    999      1 ;    H28 - H33   
   994   1000      1 ;    H28 - H34   

[ angles ]
;   ai     aj     ak    funct   theta         cth
     1      2      3      1    1.1263e+02    5.0099e+02 ;     C1 - C2     - C3    
     1      2      4      1    1.1263e+02    5.0099e+02 ;     C1 - C2     - C4    
     1      2     20      1    1.0968e+02    3.6208e+02 ;     C1 - C2     - H4    
     2      1     17      1    1.0968e+02    3.6208e+02 ;     C2 - C1     - H1    
     2      1     18      1    1.0968e+02    3.6208e+02 ;     C2 - C1     - H2    
     2      1     19      1    1.0968e+02    3.6208e+02 ;     C2 - C1     - H3    
     2      3     21      1    1.0968e+02    3.6208e+02 ;     C2 - C3     - H5    
     2      3     22      1    1.0968e+02    3.6208e+02 ;     C2 - C3     - H6    
     2      3     23      1    1.0968e+02    3.6208e+02 ;     C2 - C3     - H7    
     2      4      5      1    1.1263e+02    5.0099e+02 ;     C2 - C4     - C5    
     2      4     24      1    1.0968e+02    3.6208e+02 ;     C2 - C4     - H8    
     2      4     25      1    1.0968e+02    3.6208e+02 ;     C2 - C4     - H9    
     3      2      4      1    1.1263e+02    5.0099e+02 ;     C3 - C2     - C4    
     3      2     20      1    1.0968e+02    3.6208e+02 ;     C3 - C2     - H4    
     4      2     20      1    1.0968e+02    3.6208e+02 ;     C4 - C2     - H4    
     4      5      6      1    1.1263e+02    5.0099e+02 ;     C4 - C5     - C6    
     4      5      7      1    1.1263e+02    5.0099e+02 ;     C4 - C5     - C7    
     4      5     26      1    1.0968e+02    3.6208e+02 ;     C4 - C5     - H10   
     5      4     24      1    1.0968e+02    3.6208e+02 ;     C5 - C4     - H8    
     5      4     25      1    1.0968e+02    3.6208e+02 ;     C5 - C4     - H9    
     5      6     27      1    1.0968e+02    3.6208e+02 ;     C5 - C6     - H11   
     5      6     28      1    1.0968e+02    3.6208e+02 ;     C5 - C6     - H12   
     5      6     29      1    1.0968e+02    3.6208e+02 ;     C5 - C6     - H13   
     5      7      8      1    1.1263e+02    5.0099e+02 ;     C5 - C7     - C8    
     5      7     30      1    1.0968e+02    3.6208e+02 ;     C5 - C7     - H14   
     5      7     31      1    1.0968e+02    3.6208e+02 ;     C5 - C7     - H15   
     6      5      7      1    1.1263e+02    5.0099e+02 ;     C6 - C5     - C7    
     6      5     26      1    1.0968e+02    3.6208e+02 ;     C6 - C5     - H10   
     7      5     26      1    1.0968e+02    3.6208e+02 ;     C7 - C5     - H10   
     7      8      9      1    1.1263e+02    5.0099e+02 ;     C7 - C8     - C9    
     7      8     10      1    1.1263e+02    5.0099e+02 ;     C7 - C8     - C10   
     7      8     32      1    1.0968e+02    3.6208e+02 ;     C7 - C8     - H16   
     8      7     30      1    1.0968e+02    3.6208e+02 ;     C8 - C7     - H14   
     8      7     31      1    1.0968e+02    3.6208e+02 ;     C8 - C7     - H15   
     8      9     33      1    1.0968e+02    3.6208e+02 ;     C8 - C9     - H17   
     8      9     34      1    1.0968e+02    3.6208e+02 ;     C8 - C9     - H18   
     8      9     35      1    1.0968e+02    3.6208e+02 ;     C8 - C9     - H19   
     8     10     11      1    1.1263e+02    5.0099e+02 ;     C8 - C10    - C11   
     8     10     36      1    1.0968e+02    3.6208e+02 ;     C8 - C10    - H20   
     8     10     37      1    1.0968e+02    3.6208e+02 ;     C8 - C10    - H21   
     9      8     10      1    1.1263e+02    5.0099e+02 ;     C9 - C8     - C10   
     9      8     32      1    1.0968e+02    3.6208e+02 ;     C9 - C8     - H16   
    10      8     32      1    1.0968e+02    3.6208e+02 ;    C10 - C8     - H16   
    10     11     12      1    1.1263e+02    5.0099e+02 ;    C10 - C11    - C12   
    10     11     13      1    1.1263e+02    5.0099e+02 ;    C10 - C11    - C13   
    10     11     38      1    1.0968e+02    3.6208e+02 ;    C10 - C11    - H22   
    11     10     36      1    1.0968e+02    3.6208e+02 ;    C11 - C10    - H20   
    11     10     37      1    1.0968e+02    3.6208e+02 ;    C11 - C10    - H21   
    11     12     39      1    1.0968e+02    3.6208e+02 ;    C11 - C12    - H23   
    11     12     40      1    1.0968e+02    3.6208e+02 ;    C11 - C12    - H24   
    11     12     41      1    1.0968e+02    3.6208e+02 ;    C11 - C12    - H25   
    11     13     14      1    1.1263e+02    5.0099e+02 ;    C11 - C13    - C14   
    11     13     42      1    1.0968e+02    3.6208e+02 ;    C11 - C13    - H26   
    11     13     43      1    1.0968e+02    3.6208e+02 ;    C11 - C13    - H27   
    12     11     13      1    1.1263e+02    5.0099e+02 ;    C12 - C11    - C13   
    12     11     38      1    1.0968e+02    3.6208e+02 ;    C12 - C11    - H22   
    13     11     38      1    1.0968e+02    3.6208e+02 ;    C13 - C11    - H22   
    13     14     15      1    1.1263e+02    5.0099e+02 ;    C13 - C14    - C15   
    13     14     16      1    1.1263e+02    5.0099e+02 ;    C13 - C14    - C16   
    13     14     44      1    1.0968e+02    3.6208e+02 ;    C13 - C14    - H28   
    14     13     42      1    1.0968e+02    3.6208e+02 ;    C14 - C13    - H26   
    14     13     43      1    1.0968e+02    3.6208e+02 ;    C14 - C13    - H27   
    14     15     45      1    1.0968e+02    3.6208e+02 ;    C14 - C15    - H29   
    14     15     46      1    1.0968e+02    3.6208e+02 ;    C14 - C15    - H30   
    14     15     47      1    1.0968e+02    3.6208e+02 ;    C14 - C15    - H31   
    14     16     48      1    1.0968e+02    3.6208e+02 ;    C14 - C16    - H32   
    14     16     49      1    1.0968e+02    3.6208e+02 ;    C14 - C16    - H33   
    14     16     50      1    1.0968e+02    3.6208e+02 ;    C14 - C16    - H34   
    15     14     16      1    1.1263e+02    5.0099e+02 ;    C15 - C14    - C16   
    15     14     44      1    1.0968e+02    3.6208e+02 ;    C15 - C14    - H28   
    16     14     44      1    1.0968e+02    3.6208e+02 ;    C16 - C14    - H28   
    17      1     18      1    1.0773e+02    2.9957e+02 ;     H1 - C1     - H2    
    17      1     19      1    1.0773e+02    2.9957e+02 ;     H1 - C1     - H3    
    18      1     19      1    1.0773e+02    2.9957e+02 ;     H2 - C1     - H3    
    21      3     22      1    1.0773e+02    2.9957e+02 ;     H5 - C3     - H6    
    21      3     23      1    1.0773e+02    2.9957e+02 ;     H5 - C3     - H7    
    22      3     23      1    1.0773e+02    2.9957e+02 ;     H6 - C3     - H7    
    24      4     25      1    1.0773e+02    2.9957e+02 ;     H8 - C4     - H9    
    27      6     28      1    1.0773e+02    2.9957e+02 ;    H11 - C6     - H12   
    27      6     29      1    1.0773e+02    2.9957e+02 ;    H11 - C6     - H13   
    28      6     29      1    1.0773e+02    2.9957e+02 ;    H12 - C6     - H13   
    30      7     31      1    1.0773e+02    2.9957e+02 ;    H14 - C7     - H15   
    33      9     34      1    1.0773e+02    2.9957e+02 ;    H17 - C9     - H18   
    33      9     35      1    1.0773e+02    2.9957e+02 ;    H17 - C9     - H19   
    34      9     35      1    1.0773e+02    2.9957e+02 ;    H18 - C9     - H19   
    36     10     37      1    1.0773e+02    2.9957e+02 ;    H20 - C10    - H21   
    39     12     40      1    1.0773e+02    2.9957e+02 ;    H23 - C12    - H24   
    39     12     41      1    1.0773e+02    2.9957e+02 ;    H23 - C12    - H25   
    40     12     41      1    1.0773e+02    2.9957e+02 ;    H24 - C12    - H25   
    42     13     43      1    1.0773e+02    2.9957e+02 ;    H26 - C13    - H27   
    45     15     46      1    1.0773e+02    2.9957e+02 ;    H29 - C15    - H30   
    45     15     47      1    1.0773e+02    2.9957e+02 ;    H29 - C15    - H31   
    46     15     47      1    1.0773e+02    2.9957e+02 ;    H30 - C15    - H31   
    48     16     49      1    1.0773e+02    2.9957e+02 ;    H32 - C16    - H33   
    48     16     50      1    1.0773e+02    2.9957e+02 ;    H32 - C16    - H34   
    49     16     50      1    1.0773e+02    2.9957e+02 ;    H33 - C16    - H34   
    51     52     53      1    1.1263e+02    5.0099e+02 ;     C1 - C2     - C3    
    51     52     54      1    1.1263e+02    5.0099e+02 ;     C1 - C2     - C4    
    51     52     70      1    1.0968e+02    3.6208e+02 ;     C1 - C2     - H4    
    52     51     67      1    1.0968e+02    3.6208e+02 ;     C2 - C1     - H1    
    52     51     68      1    1.0968e+02    3.6208e+02 ;     C2 - C1     - H2    
    52     51     69      1    1.0968e+02    3.6208e+02 ;     C2 - C1     - H3    
    52     53     71      1    1.0968e+02    3.6208e+02 ;     C2 - C3     - H5    
    52     53     72      1    1.0968e+02    3.6208e+02 ;     C2 - C3     - H6    
    52     53     73      1    1.0968e+02    3.6208e+02 ;     C2 - C3     - H7    
    52     54     55      1    1.1263e+02    5.0099e+02 ;     C2 - C4     - C5    
    52     54     74      1    1.0968e+02    3.6208e+02 ;     C2 - C4     - H8    
    52     54     75      1    1.0968e+02    3.6208e+02 ;     C2 - C4     - H9    
    53     52     54      1    1.1263e+02    5.0099e+02 ;     C3 - C2     - C4    
    53     52     70      1    1.0968e+02    3.6208e+02 ;     C3 - C2     - H4    
    54     52     70      1    1.0968e+02    3.6208e+02 ;     C4 - C2     - H4    
    54     55     56      1    1.1263e+02    5.0099e+02 ;     C4 - C5     - C6    
    54     55     57      1    1.1263e+02    5.0099e+02 ;     C4 - C5     - C7    
    54     55     76      1    1.0968e+02    3.6208e+02 ;     C4 - C5     - H10   
    55     54     74      1    1.0968e+02    3.6208e+02 ;     C5 - C4     - H8    
    55     54     75      1    1.0968e+02    3.6208e+02 ;     C5 - C4     - H9    
    55     56     77      1    1.0968e+02    3.6208e+02 ;     C5 - C6     - H11   
    55     56     78      1    1.0968e+02    3.6208e+02 ;     C5 - C6     - H12   
    55     56     79      1    1.0968e+02    3.6208e+02 ;     C5 - C6     - H13   
    55     57     58      1    1.1263e+02    5.0099e+02 ;     C5 - C7     - C8    
    55     57     80      1    1.0968e+02    3.6208e+02 ;     C5 - C7     - H14   
    55     57     81      1    1.0968e+02    3.6208e+02 ;     C5 - C7     - H15   
    56     55     57      1    1.1263e+02    5.0099e+02 ;     C6 - C5     - C7    
    56     55     76      1    1.0968e+02    3.6208e+02 ;     C6 - C5     - H10   
    57     55     76      1    1.0968e+02    3.6208e+02 ;     C7 - C5     - H10   
    57     58     59      1    1.1263e+02    5.0099e+02 ;     C7 - C8     - C9    
    57     58     60      1    1.1263e+02    5.0099e+02 ;     C7 - C8     - C10   
    57     58     82      1    1.0968e+02    3.6208e+02 ;     C7 - C8     - H16   
    58     57     80      1    1.0968e+02    3.6208e+02 ;     C8 - C7     - H14   
    58     57     81      1    1.0968e+02    3.6208e+02 ;     C8 - C7     - H15   
    58     59     83      1    1.0968e+02    3.6208e+02 ;     C8 - C9     - H17   
    58     59     84      1    1.0968e+02    3.6208e+02 ;     C8 - C9     - H18   
    58     59     85      1    1.0968e+02    3.6208e+02 ;     C8 - C9     - H19   
    58     60     61      1    1.1263e+02    5.0099e+02 ;     C8 - C10    - C11   
    58     60     86      1    1.0968e+02    3.6208e+02 ;     C8 - C10    - H20   
    58     60     87      1    1.0968e+02    3.6208e+02 ;     C8 - C10    - H21   
    59     58     60      1    1.1263e+02    5.0099e+02 ;     C9 - C8     - C10   
    59     58     82      1    1.0968e+02    3.6208e+02 ;     C9 - C8     - H16   
    60     58     82      1    1.0968e+02    3.6208e+02 ;    C10 - C8     - H16   
    60     61     62      1    1.1263e+02    5.0099e+02 ;    C10 - C11    - C12   
    60     61     63      1    1.1263e+02    5.0099e+02 ;    C10 - C11    - C13   
    60     61     88      1    1.0968e+02    3.6208e+02 ;    C10 - C11    - H22   
    61     60     86      1    1.0968e+02    3.6208e+02 ;    C11 - C10    - H20   
    61     60     87      1    1.0968e+02    3.6208e+02 ;    C11 - C10    - H21   
    61     62     89      1    1.0968e+02    3.6208e+02 ;    C11 - C12    - H23   
    61     62     90      1    1.0968e+02    3.6208e+02 ;    C11 - C12    - H24   
    61     62     91      1    1.0968e+02    3.6208e+02 ;    C11 - C12    - H25   
    61     63     64      1    1.1263e+02    5.0099e+02 ;    C11 - C13    - C14   
    61     63     92      1    1.0968e+02    3.6208e+02 ;    C11 - C13    - H26   
    61     63     93      1    1.0968e+02    3.6208e+02 ;    C11 - C13    - H27   
    62     61     63      1    1.1263e+02    5.0099e+02 ;    C12 - C11    - C13   
    62     61     88      1    1.0968e+02    3.6208e+02 ;    C12 - C11    - H22   
    63     61     88      1    1.0968e+02    3.6208e+02 ;    C13 - C11    - H22   
    63     64     65      1    1.1263e+02    5.0099e+02 ;    C13 - C14    - C15   
    63     64     66      1    1.1263e+02    5.0099e+02 ;    C13 - C14    - C16   
    63     64     94      1    1.0968e+02    3.6208e+02 ;    C13 - C14    - H28   
    64     63     92      1    1.0968e+02    3.6208e+02 ;    C14 - C13    - H26   
    64     63     93      1    1.0968e+02    3.6208e+02 ;    C14 - C13    - H27   
    64     65     95      1    1.0968e+02    3.6208e+02 ;    C14 - C15    - H29   
    64     65     96      1    1.0968e+02    3.6208e+02 ;    C14 - C15    - H30   
    64     65     97      1    1.0968e+02    3.6208e+02 ;    C14 - C15    - H31   
    64     66     98      1    1.0968e+02    3.6208e+02 ;    C14 - C16    - H32   
    64     66     99      1    1.0968e+02    3.6208e+02 ;    C14 - C16    - H33   
    64     66    100      1    1.0968e+02    3.6208e+02 ;    C14 - C16    - H34   
    65     64     66      1    1.1263e+02    5.0099e+02 ;    C15 - C14    - C16   
    65     64     94      1    1.0968e+02    3.6208e+02 ;    C15 - C14    - H28   
    66     64     94      1    1.0968e+02    3.6208e+02 ;    C16 - C14    - H28   
    67     51     68      1    1.0773e+02    2.9957e+02 ;     H1 - C1     - H2    
    67     51     69      1    1.0773e+02    2.9957e+02 ;     H1 - C1     - H3    
    68     51     69      1    1.0773e+02    2.9957e+02 ;     H2 - C1     - H3    
    71     53     72      1    1.0773e+02    2.9957e+02 ;     H5 - C3     - H6    
    71     53     73      1    1.0773e+02    2.9957e+02 ;     H5 - C3     - H7    
    72     53     73      1    1.0773e+02    2.9957e+02 ;     H6 - C3     - H7    
    74     54     75      1    1.0773e+02    2.9957e+02 ;     H8 - C4     - H9    
    77     56     78      1    1.0773e+02    2.9957e+02 ;    H11 - C6     - H12   
    77     56     79      1    1.0773e+02    2.9957e+02 ;    H11 - C6     - H13   
    78     56     79      1    1.0773e+02    2.9957e+02 ;    H12 - C6     - H13   
    80     57     81      1    1.0773e+02    2.9957e+02 ;    H14 - C7     - H15   
    83     59     84      1    1.0773e+02    2.9957e+02 ;    H17 - C9     - H18   
    83     59     85      1    1.0773e+02    2.9957e+02 ;    H17 - C9     - H19   
    84     59     85      1    1.0773e+02    2.9957e+02 ;    H18 - C9     - H19   
    86     60     87      1    1.0773e+02    2.9957e+02 ;    H20 - C10    - H21   
    89     62     90      1    1.0773e+02    2.9957e+02 ;    H23 - C12    - H24   
    89     62     91      1    1.0773e+02    2.9957e+02 ;    H23 - C12    - H25   
    90     62     91      1    1.0773e+02    2.9957e+02 ;    H24 - C12    - H25   
    92     63     93      1    1.0773e+02    2.9957e+02 ;    H26 - C13    - H27   
    95     65     96      1    1.0773e+02    2.9957e+02 ;    H29 - C15    - H30   
    95     65     97      1    1.0773e+02    2.9957e+02 ;    H29 - C15    - H31   
    96     65     97      1    1.0773e+02    2.9957e+02 ;    H30 - C15    - H31   
    98     66     99      1    1.0773e+02    2.9957e+02 ;    H32 - C16    - H33   
    98     66    100      1    1.0773e+02    2.9957e+02 ;    H32 - C16    - H34   
    99     66    100      1    1.0773e+02    2.9957e+02 ;    H33 - C16    - H34   
   101    102    103      1    1.1263e+02    5.0099e+02 ;     C1 - C2     - C3    
   101    102    104      1    1.1263e+02    5.0099e+02 ;     C1 - C2     - C4    
   101    102    120      1    1.0968e+02    3.6208e+02 ;     C1 - C2     - H4    
   102    101    117      1    1.0968e+02    3.6208e+02 ;     C2 - C1     - H1    
   102    101    118      1    1.0968e+02    3.6208e+02 ;     C2 - C1     - H2    
   102    101    119      1    1.0968e+02    3.6208e+02 ;     C2 - C1     - H3    
   102    103    121      1    1.0968e+02    3.6208e+02 ;     C2 - C3     - H5    
   102    103    122      1    1.0968e+02    3.6208e+02 ;     C2 - C3     - H6    
   102    103    123      1    1.0968e+02    3.6208e+02 ;     C2 - C3     - H7    
   102    104    105      1    1.1263e+02    5.0099e+02 ;     C2 - C4     - C5    
   102    104    124      1    1.0968e+02    3.6208e+02 ;     C2 - C4     - H8    
   102    104    125      1    1.0968e+02    3.6208e+02 ;     C2 - C4     - H9    
   103    102    104      1    1.1263e+02    5.0099e+02 ;     C3 - C2     - C4    
   103    102    120      1    1.0968e+02    3.6208e+02 ;     C3 - C2     - H4    
   104    102    120      1    1.0968e+02    3.6208e+02 ;     C4 - C2     - H4    
   104    105    106      1    1.1263e+02    5.0099e+02 ;     C4 - C5     - C6    
   104    105    107      1    1.1263e+02    5.0099e+02 ;     C4 - C5     - C7    
   104    105    126      1    1.0968e+02    3.6208e+02 ;     C4 - C5     - H10   
   105    104    124      1    1.0968e+02    3.6208e+02 ;     C5 - C4     - H8    
   105    104    125      1    1.0968e+02    3.6208e+02 ;     C5 - C4     - H9    
   105    106    127      1    1.0968e+02    3.6208e+02 ;     C5 - C6     - H11   
   105    106    128      1    1.0968e+02    3.6208e+02 ;     C5 - C6     - H12   
   105    106    129      1    1.0968e+02    3.6208e+02 ;     C5 - C6     - H13   
   105    107    108      1    1.1263e+02    5.0099e+02 ;     C5 - C7     - C8    
   105    107    130      1    1.0968e+02    3.6208e+02 ;     C5 - C7     - H14   
   105    107    131      1    1.0968e+02    3.6208e+02 ;     C5 - C7     - H15   
   106    105    107      1    1.1263e+02    5.0099e+02 ;     C6 - C5     - C7    
   106    105    126      1    1.0968e+02    3.6208e+02 ;     C6 - C5     - H10   
   107    105    126      1    1.0968e+02    3.6208e+02 ;     C7 - C5     - H10   
   107    108    109      1    1.1263e+02    5.0099e+02 ;     C7 - C8     - C9    
   107    108    110      1    1.1263e+02    5.0099e+02 ;     C7 - C8     - C10   
   107    108    132      1    1.0968e+02    3.6208e+02 ;     C7 - C8     - H16   
   108    107    130      1    1.0968e+02    3.6208e+02 ;     C8 - C7     - H14   
   108    107    131      1    1.0968e+02    3.6208e+02 ;     C8 - C7     - H15   
   108    109    133      1    1.0968e+02    3.6208e+02 ;     C8 - C9     - H17   
   108    109    134      1    1.0968e+02    3.6208e+02 ;     C8 - C9     - H18   
   108    109    135      1    1.0968e+02    3.6208e+02 ;     C8 - C9     - H19   
   108    110    111      1    1.1263e+02    5.0099e+02 ;     C8 - C10    - C11   
   108    110    136      1    1.0968e+02    3.6208e+02 ;     C8 - C10    - H20   
   108    110    137      1    1.0968e+02    3.6208e+02 ;     C8 - C10    - H21   
   109    108    110      1    1.1263e+02    5.0099e+02 ;     C9 - C8     - C10   
   109    108    132      1    1.0968e+02    3.6208e+02 ;     C9 - C8     - H16   
   110    108    132      1    1.0968e+02    3.6208e+02 ;    C10 - C8     - H16   
   110    111    112      1    1.1263e+02    5.0099e+02 ;    C10 - C11    - C12   
   110    111    113      1    1.1263e+02    5.0099e+02 ;    C10 - C11    - C13   
   110    111    138      1    1.0968e+02    3.6208e+02 ;    C10 - C11    - H22   
   111    110    136      1    1.0968e+02    3.6208e+02 ;    C11 - C10    - H20   
   111    110    137      1    1.0968e+02    3.6208e+02 ;    C11 - C10    - H21   
   111    112    139      1    1.0968e+02    3.6208e+02 ;    C11 - C12    - H23   
   111    112    140      1    1.0968e+02    3.6208e+02 ;    C11 - C12    - H24   
   111    112    141      1    1.0968e+02    3.6208e+02 ;    C11 - C12    - H25   
   111    113    114      1    1.1263e+02    5.0099e+02 ;    C11 - C13    - C14   
   111    113    142      1    1.0968e+02    3.6208e+02 ;    C11 - C13    - H26   
   111    113    143      1    1.0968e+02    3.6208e+02 ;    C11 - C13    - H27   
   112    111    113      1    1.1263e+02    5.0099e+02 ;    C12 - C11    - C13   
   112    111    138      1    1.0968e+02    3.6208e+02 ;    C12 - C11    - H22   
   113    111    138      1    1.0968e+02    3.6208e+02 ;    C13 - C11    - H22   
   113    114    115      1    1.1263e+02    5.0099e+02 ;    C13 - C14    - C15   
   113    114    116      1    1.1263e+02    5.0099e+02 ;    C13 - C14    - C16   
   113    114    144      1    1.0968e+02    3.6208e+02 ;    C13 - C14    - H28   
   114    113    142      1    1.0968e+02    3.6208e+02 ;    C14 - C13    - H26   
   114    113    143      1    1.0968e+02    3.6208e+02 ;    C14 - C13    - H27   
   114    115    145      1    1.0968e+02    3.6208e+02 ;    C14 - C15    - H29   
   114    115    146      1    1.0968e+02    3.6208e+02 ;    C14 - C15    - H30   
   114    115    147      1    1.0968e+02    3.6208e+02 ;    C14 - C15    - H31   
   114    116    148      1    1.0968e+02    3.6208e+02 ;    C14 - C16    - H32   
   114    116    149      1    1.0968e+02    3.6208e+02 ;    C14 - C16    - H33   
   114    116    150      1    1.0968e+02    3.6208e+02 ;    C14 - C16    - H34   
   115    114    116      1    1.1263e+02    5.0099e+02 ;    C15 - C14    - C16   
   115    114    144      1    1.0968e+02    3.6208e+02 ;    C15 - C14    - H28   
   116    114    144      1    1.0968e+02    3.6208e+02 ;    C16 - C14    - H28   
   117    101    118      1    1.0773e+02    2.9957e+02 ;     H1 - C1     - H2    
   117    101    119      1    1.0773e+02    2.9957e+02 ;     H1 - C1     - H3    
   118    101    119      1    1.0773e+02    2.9957e+02 ;     H2 - C1     - H3    
   121    103    122      1    1.0773e+02    2.9957e+02 ;     H5 - C3     - H6    
   121    103    123      1    1.0773e+02    2.9957e+02 ;     H5 - C3     - H7    
   122    103    123      1    1.0773e+02    2.9957e+02 ;     H6 - C3     - H7    
   124    104    125      1    1.0773e+02    2.9957e+02 ;     H8 - C4     - H9    
   127    106    128      1    1.0773e+02    2.9957e+02 ;    H11 - C6     - H12   
   127    106    129      1    1.0773e+02    2.9957e+02 ;    H11 - C6     - H13   
   128    106    129      1    1.0773e+02    2.9957e+02 ;    H12 - C6     - H13   
   130    107    131      1    1.0773e+02    2.9957e+02 ;    H14 - C7     - H15   
   133    109    134      1    1.0773e+02    2.9957e+02 ;    H17 - C9     - H18   
   133    109    135      1    1.0773e+02    2.9957e+02 ;    H17 - C9     - H19   
   134    109    135      1    1.0773e+02    2.9957e+02 ;    H18 - C9     - H19   
   136    110    137      1    1.0773e+02    2.9957e+02 ;    H20 - C10    - H21   
   139    112    140      1    1.0773e+02    2.9957e+02 ;    H23 - C12    - H24   
   139    112    141      1    1.0773e+02    2.9957e+02 ;    H23 - C12    - H25   
   140    112    141      1    1.0773e+02    2.9957e+02 ;    H24 - C12    - H25   
   142    113    143      1    1.0773e+02    2.9957e+02 ;    H26 - C13    - H27   
   145    115    146      1    1.0773e+02    2.9957e+02 ;    H29 - C15    - H30   
   145    115    147      1    1.0773e+02    2.9957e+02 ;    H29 - C15    - H31   
   146    115    147      1    1.0773e+02    2.9957e+02 ;    H30 - C15    - H31   
   148    116    149      1    1.0773e+02    2.9957e+02 ;    H32 - C16    - H33   
   148    116    150      1    1.0773e+02    2.9957e+02 ;    H32 - C16    - H34   
   149    116    150      1    1.0773e+02    2.9957e+02 ;    H33 - C16    - H34   
   151    152    153      1    1.1263e+02    5.0099e+02 ;     C1 - C2     - C3    
   151    152    154      1    1.1263e+02    5.0099e+02 ;     C1 - C2     - C4    
   151    152    170      1    1.0968e+02    3.6208e+02 ;     C1 - C2     - H4    
   152    151    167      1    1.0968e+02    3.6208e+02 ;     C2 - C1     - H1    
   152    151    168      1    1.0968e+02    3.6208e+02 ;     C2 - C1     - H2    
   152    151    169      1    1.0968e+02    3.6208e+02 ;     C2 - C1     - H3    
   152    153    171      1    1.0968e+02    3.6208e+02 ;     C2 - C3     - H5    
   152    153    172      1    1.0968e+02    3.6208e+02 ;     C2 - C3     - H6    
   152    153    173      1    1.0968e+02    3.6208e+02 ;     C2 - C3     - H7    
   152    154    155      1    1.1263e+02    5.0099e+02 ;     C2 - C4     - C5    
   152    154    174      1    1.0968e+02    3.6208e+02 ;     C2 - C4     - H8    
   152    154    175      1    1.0968e+02    3.6208e+02 ;     C2 - C4     - H9    
   153    152    154      1    1.1263e+02    5.0099e+02 ;     C3 - C2     - C4    
   153    152    170      1    1.0968e+02    3.6208e+02 ;     C3 - C2     - H4    
   154    152    170      1    1.0968e+02    3.6208e+02 ;     C4 - C2     - H4    
   154    155    156      1    1.1263e+02    5.0099e+02 ;     C4 - C5     - C6    
   154    155    157      1    1.1263e+02    5.0099e+02 ;     C4 - C5     - C7    
   154    155    176      1    1.0968e+02    3.6208e+02 ;     C4 - C5     - H10   
   155    154    174      1    1.0968e+02    3.6208e+02 ;     C5 - C4     - H8    
   155    154    175      1    1.0968e+02    3.6208e+02 ;     C5 - C4     - H9    
   155    156    177      1    1.0968e+02    3.6208e+02 ;     C5 - C6     - H11   
   155    156    178      1    1.0968e+02    3.6208e+02 ;     C5 - C6     - H12   
   155    156    179      1    1.0968e+02    3.6208e+02 ;     C5 - C6     - H13   
   155    157    158      1    1.1263e+02    5.0099e+02 ;     C5 - C7     - C8    
   155    157    180      1    1.0968e+02    3.6208e+02 ;     C5 - C7     - H14   
   155    157    181      1    1.0968e+02    3.6208e+02 ;     C5 - C7     - H15   
   156    155    157      1    1.1263e+02    5.0099e+02 ;     C6 - C5     - C7    
   156    155    176      1    1.0968e+02    3.6208e+02 ;     C6 - C5     - H10   
   157    155    176      1    1.0968e+02    3.6208e+02 ;     C7 - C5     - H10   
   157    158    159      1    1.1263e+02    5.0099e+02 ;     C7 - C8     - C9    
   157    158    160      1    1.1263e+02    5.0099e+02 ;     C7 - C8     - C10   
   157    158    182      1    1.0968e+02    3.6208e+02 ;     C7 - C8     - H16   
   158    157    180      1    1.0968e+02    3.6208e+02 ;     C8 - C7     - H14   
   158    157    181      1    1.0968e+02    3.6208e+02 ;     C8 - C7     - H15   
   158    159    183      1    1.0968e+02    3.6208e+02 ;     C8 - C9     - H17   
   158    159    184      1    1.0968e+02    3.6208e+02 ;     C8 - C9     - H18   
   158    159    185      1    1.0968e+02    3.6208e+02 ;     C8 - C9     - H19   
   158    160    161      1    1.1263e+02    5.0099e+02 ;     C8 - C10    - C11   
   158    160    186      1    1.0968e+02    3.6208e+02 ;     C8 - C10    - H20   
   158    160    187      1    1.0968e+02    3.6208e+02 ;     C8 - C10    - H21   
   159    158    160      1    1.1263e+02    5.0099e+02 ;     C9 - C8     - C10   
   159    158    182      1    1.0968e+02    3.6208e+02 ;     C9 - C8     - H16   
   160    158    182      1    1.0968e+02    3.6208e+02 ;    C10 - C8     - H16   
   160    161    162      1    1.1263e+02    5.0099e+02 ;    C10 - C11    - C12   
   160    161    163      1    1.1263e+02    5.0099e+02 ;    C10 - C11    - C13   
   160    161    188      1    1.0968e+02    3.6208e+02 ;    C10 - C11    - H22   
   161    160    186      1    1.0968e+02    3.6208e+02 ;    C11 - C10    - H20   
   161    160    187      1    1.0968e+02    3.6208e+02 ;    C11 - C10    - H21   
   161    162    189      1    1.0968e+02    3.6208e+02 ;    C11 - C12    - H23   
   161    162    190      1    1.0968e+02    3.6208e+02 ;    C11 - C12    - H24   
   161    162    191      1    1.0968e+02    3.6208e+02 ;    C11 - C12    - H25   
   161    163    164      1    1.1263e+02    5.0099e+02 ;    C11 - C13    - C14   
   161    163    192      1    1.0968e+02    3.6208e+02 ;    C11 - C13    - H26   
   161    163    193      1    1.0968e+02    3.6208e+02 ;    C11 - C13    - H27   
   162    161    163      1    1.1263e+02    5.0099e+02 ;    C12 - C11    - C13   
   162    161    188      1    1.0968e+02    3.6208e+02 ;    C12 - C11    - H22   
   163    161    188      1    1.0968e+02    3.6208e+02 ;    C13 - C11    - H22   
   163    164    165      1    1.1263e+02    5.0099e+02 ;    C13 - C14    - C15   
   163    164    166      1    1.1263e+02    5.0099e+02 ;    C13 - C14    - C16   
   163    164    194      1    1.0968e+02    3.6208e+02 ;    C13 - C14    - H28   
   164    163    192      1    1.0968e+02    3.6208e+02 ;    C14 - C13    - H26   
   164    163    193      1    1.0968e+02    3.6208e+02 ;    C14 - C13    - H27   
   164    165    195      1    1.0968e+02    3.6208e+02 ;    C14 - C15    - H29   
   164    165    196      1    1.0968e+02    3.6208e+02 ;    C14 - C15    - H30   
   164    165    197      1    1.0968e+02    3.6208e+02 ;    C14 - C15    - H31   
   164    166    198      1    1.0968e+02    3.6208e+02 ;    C14 - C16    - H32   
   164    166    199      1    1.0968e+02    3.6208e+02 ;    C14 - C16    - H33   
   164    166    200      1    1.0968e+02    3.6208e+02 ;    C14 - C16    - H34   
   165    164    166      1    1.1263e+02    5.0099e+02 ;    C15 - C14    - C16   
   165    164    194      1    1.0968e+02    3.6208e+02 ;    C15 - C14    - H28   
   166    164    194      1    1.0968e+02    3.6208e+02 ;    C16 - C14    - H28   
   167    151    168      1    1.0773e+02    2.9957e+02 ;     H1 - C1     - H2    
   167    151    169      1    1.0773e+02    2.9957e+02 ;     H1 - C1     - H3    
   168    151    169      1    1.0773e+02    2.9957e+02 ;     H2 - C1     - H3    
   171    153    172      1    1.0773e+02    2.9957e+02 ;     H5 - C3     - H6    
   171    153    173      1    1.0773e+02    2.9957e+02 ;     H5 - C3     - H7    
   172    153    173      1    1.0773e+02    2.9957e+02 ;     H6 - C3     - H7    
   174    154    175      1    1.0773e+02    2.9957e+02 ;     H8 - C4     - H9    
   177    156    178      1    1.0773e+02    2.9957e+02 ;    H11 - C6     - H12   
   177    156    179      1    1.0773e+02    2.9957e+02 ;    H11 - C6     - H13   
   178    156    179      1    1.0773e+02    2.9957e+02 ;    H12 - C6     - H13   
   180    157    181      1    1.0773e+02    2.9957e+02 ;    H14 - C7     - H15   
   183    159    184      1    1.0773e+02    2.9957e+02 ;    H17 - C9     - H18   
   183    159    185      1    1.0773e+02    2.9957e+02 ;    H17 - C9     - H19   
   184    159    185      1    1.0773e+02    2.9957e+02 ;    H18 - C9     - H19   
   186    160    187      1    1.0773e+02    2.9957e+02 ;    H20 - C10    - H21   
   189    162    190      1    1.0773e+02    2.9957e+02 ;    H23 - C12    - H24   
   189    162    191      1    1.0773e+02    2.9957e+02 ;    H23 - C12    - H25   
   190    162    191      1    1.0773e+02    2.9957e+02 ;    H24 - C12    - H25   
   192    163    193      1    1.0773e+02    2.9957e+02 ;    H26 - C13    - H27   
   195    165    196      1    1.0773e+02    2.9957e+02 ;    H29 - C15    - H30   
   195    165    197      1    1.0773e+02    2.9957e+02 ;    H29 - C15    - H31   
   196    165    197      1    1.0773e+02    2.9957e+02 ;    H30 - C15    - H31   
   198    166    199      1    1.0773e+02    2.9957e+02 ;    H32 - C16    - H33   
   198    166    200      1    1.0773e+02    2.9957e+02 ;    H32 - C16    - H34   
   199    166    200      1    1.0773e+02    2.9957e+02 ;    H33 - C16    - H34   
   201    202    203      1    1.1263e+02    5.0099e+02 ;     C1 - C2     - C3    
   201    202    204      1    1.1263e+02    5.0099e+02 ;     C1 - C2     - C4    
   201    202    220      1    1.0968e+02    3.6208e+02 ;     C1 - C2     - H4    
   202    201    217      1    1.0968e+02    3.6208e+02 ;     C2 - C1     - H1    
   202    201    218      1    1.0968e+02    3.6208e+02 ;     C2 - C1     - H2    
   202    201    219      1    1.0968e+02    3.6208e+02 ;     C2 - C1     - H3    
   202    203    221      1    1.0968e+02    3.6208e+02 ;     C2 - C3     - H5    
   202    203    222      1    1.0968e+02    3.6208e+02 ;     C2 - C3     - H6    
   202    203    223      1    1.0968e+02    3.6208e+02 ;     C2 - C3     - H7    
   202    204    205      1    1.1263e+02    5.0099e+02 ;     C2 - C4     - C5    
   202    204    224      1    1.0968e+02    3.6208e+02 ;     C2 - C4     - H8    
   202    204    225      1    1.0968e+02    3.6208e+02 ;     C2 - C4     - H9    
   203    202    204      1    1.1263e+02    5.0099e+02 ;     C3 - C2     - C4    
   203    202    220      1    1.0968e+02    3.6208e+02 ;     C3 - C2     - H4    
   204    202    220      1    1.0968e+02    3.6208e+02 ;     C4 - C2     - H4    
   204    205    206      1    1.1263e+02    5.0099e+02 ;     C4 - C5     - C6    
   204    205    207      1    1.1263e+02    5.0099e+02 ;     C4 - C5     - C7    
   204    205    226      1    1.0968e+02    3.6208e+02 ;     C4 - C5     - H10   
   205    204    224      1    1.0968e+02    3.6208e+02 ;     C5 - C4     - H8    
   205    204    225      1    1.0968e+02    3.6208e+02 ;     C5 - C4     - H9    
   205    206    227      1    1.0968e+02    3.6208e+02 ;     C5 - C6     - H11   
   205    206    228      1    1.0968e+02    3.6208e+02 ;     C5 - C6     - H12   
   205    206    229      1    1.0968e+02    3.6208e+02 ;     C5 - C6     - H13   
   205    207    208      1    1.1263e+02    5.0099e+02 ;     C5 - C7     - C8    
   205    207    230      1    1.0968e+02    3.6208e+02 ;     C5 - C7     - H14   
   205    207    231      1    1.0968e+02    3.6208e+02 ;     C5 - C7     - H15   
   206    205    207      1    1.1263e+02    5.0099e+02 ;     C6 - C5     - C7    
   206    205    226      1    1.0968e+02    3.6208e+02 ;     C6 - C5     - H10   
   207    205    226      1    1.0968e+02    3.6208e+02 ;     C7 - C5     - H10   
   207    208    209      1    1.1263e+02    5.0099e+02 ;     C7 - C8     - C9    
   207    208    210      1    1.1263e+02    5.0099e+02 ;     C7 - C8     - C10   
   207    208    232      1    1.0968e+02    3.6208e+02 ;     C7 - C8     - H16   
   208    207    230      1    1.0968e+02    3.6208e+02 ;     C8 - C7     - H14   
   208    207    231      1    1.0968e+02    3.6208e+02 ;     C8 - C7     - H15   
   208    209    233      1    1.0968e+02    3.6208e+02 ;     C8 - C9     - H17   
   208    209    234      1    1.0968e+02    3.6208e+02 ;     C8 - C9     - H18   
   208    209    235      1    1.0968e+02    3.6208e+02 ;     C8 - C9     - H19   
   208    210    211      1    1.1263e+02    5.0099e+02 ;     C8 - C10    - C11   
   208    210    236      1    1.0968e+02    3.6208e+02 ;     C8 - C10    - H20   
   208    210    237      1    1.0968e+02    3.6208e+02 ;     C8 - C10    - H21   
   209    208    210      1    1.1263e+02    5.0099e+02 ;     C9 - C8     - C10   
   209    208    232      1    1.0968e+02    3.6208e+02 ;     C9 - C8     - H16   
   210    208    232      1    1.0968e+02    3.6208e+02 ;    C10 - C8     - H16   
   210    211    212      1    1.1263e+02    5.0099e+02 ;    C10 - C11    - C12   
   210    211    213      1    1.1263e+02    5.0099e+02 ;    C10 - C11    - C13   
   210    211    238      1    1.0968e+02    3.6208e+02 ;    C10 - C11    - H22   
   211    210    236      1    1.0968e+02    3.6208e+02 ;    C11 - C10    - H20   
   211    210    237      1    1.0968e+02    3.6208e+02 ;    C11 - C10    - H21   
   211    212    239      1    1.0968e+02    3.6208e+02 ;    C11 - C12    - H23   
   211    212    240      1    1.0968e+02    3.6208e+02 ;    C11 - C12    - H24   
   211    212    241      1    1.0968e+02    3.6208e+02 ;    C11 - C12    - H25   
   211    213    214      1    1.1263e+02    5.0099e+02 ;    C11 - C13    - C14   
   211    213    242      1    1.0968e+02    3.6208e+02 ;    C11 - C13    - H26   
   211    213    243      1    1.0968e+02    3.6208e+02 ;    C11 - C13    - H27   
   212    211    213      1    1.1263e+02    5.0099e+02 ;    C12 - C11    - C13   
   212    211    238      1    1.0968e+02    3.6208e+02 ;    C12 - C11    - H22   
   213    211    238      1    1.0968e+02    3.6208e+02 ;    C13 - C11    - H22   
   213    214    215      1    1.1263e+02    5.0099e+02 ;    C13 - C14    - C15   
   213    214    216      1    1.1263e+02    5.0099e+02 ;    C13 - C14    - C16   
   213    214    244      1    1.0968e+02    3.6208e+02 ;    C13 - C14    - H28   
   214    213    242      1    1.0968e+02    3.6208e+02 ;    C14 - C13    - H26   
   214    213    243      1    1.0968e+02    3.6208e+02 ;    C14 - C13    - H27   
   214    215    245      1    1.0968e+02    3.6208e+02 ;    C14 - C15    - H29   
   214    215    246      1    1.0968e+02    3.6208e+02 ;    C14 - C15    - H30   
   214    215    247      1    1.0968e+02    3.6208e+02 ;    C14 - C15    - H31   
   214    216    248      1    1.0968e+02    3.6208e+02 ;    C14 - C16    - H32   
   214    216    249      1    1.0968e+02    3.6208e+02 ;    C14 - C16    - H33   
   214    216    250      1    1.0968e+02    3.6208e+02 ;    C14 - C16    - H34   
   215    214    216      1    1.1263e+02    5.0099e+02 ;    C15 - C14    - C16   
   215    214    244      1    1.0968e+02    3.6208e+02 ;    C15 - C14    - H28   
   216    214    244      1    1.0968e+02    3.6208e+02 ;    C16 - C14    - H28   
   217    201    218      1    1.0773e+02    2.9957e+02 ;     H1 - C1     - H2    
   217    201    219      1    1.0773e+02    2.9957e+02 ;     H1 - C1     - H3    
   218    201    219      1    1.0773e+02    2.9957e+02 ;     H2 - C1     - H3    
   221    203    222      1    1.0773e+02    2.9957e+02 ;     H5 - C3     - H6    
   221    203    223      1    1.0773e+02    2.9957e+02 ;     H5 - C3     - H7    
   222    203    223      1    1.0773e+02    2.9957e+02 ;     H6 - C3     - H7    
   224    204    225      1    1.0773e+02    2.9957e+02 ;     H8 - C4     - H9    
   227    206    228      1    1.0773e+02    2.9957e+02 ;    H11 - C6     - H12   
   227    206    229      1    1.0773e+02    2.9957e+02 ;    H11 - C6     - H13   
   228    206    229      1    1.0773e+02    2.9957e+02 ;    H12 - C6     - H13   
   230    207    231      1    1.0773e+02    2.9957e+02 ;    H14 - C7     - H15   
   233    209    234      1    1.0773e+02    2.9957e+02 ;    H17 - C9     - H18   
   233    209    235      1    1.0773e+02    2.9957e+02 ;    H17 - C9     - H19   
   234    209    235      1    1.0773e+02    2.9957e+02 ;    H18 - C9     - H19   
   236    210    237      1    1.0773e+02    2.9957e+02 ;    H20 - C10    - H21   
   239    212    240      1    1.0773e+02    2.9957e+02 ;    H23 - C12    - H24   
   239    212    241      1    1.0773e+02    2.9957e+02 ;    H23 - C12    - H25   
   240    212    241      1    1.0773e+02    2.9957e+02 ;    H24 - C12    - H25   
   242    213    243      1    1.0773e+02    2.9957e+02 ;    H26 - C13    - H27   
   245    215    246      1    1.0773e+02    2.9957e+02 ;    H29 - C15    - H30   
   245    215    247      1    1.0773e+02    2.9957e+02 ;    H29 - C15    - H31   
   246    215    247      1    1.0773e+02    2.9957e+02 ;    H30 - C15    - H31   
   248    216    249      1    1.0773e+02    2.9957e+02 ;    H32 - C16    - H33   
   248    216    250      1    1.0773e+02    2.9957e+02 ;    H32 - C16    - H34   
   249    216    250      1    1.0773e+02    2.9957e+02 ;    H33 - C16    - H34   
   251    252    253      1    1.1263e+02    5.0099e+02 ;     C1 - C2     - C3    
   251    252    254      1    1.1263e+02    5.0099e+02 ;     C1 - C2     - C4    
   251    252    270      1    1.0968e+02    3.6208e+02 ;     C1 - C2     - H4    
   252    251    267      1    1.0968e+02    3.6208e+02 ;     C2 - C1     - H1    
   252    251    268      1    1.0968e+02    3.6208e+02 ;     C2 - C1     - H2    
   252    251    269      1    1.0968e+02    3.6208e+02 ;     C2 - C1     - H3    
   252    253    271      1    1.0968e+02    3.6208e+02 ;     C2 - C3     - H5    
   252    253    272      1    1.0968e+02    3.6208e+02 ;     C2 - C3     - H6    
   252    253    273      1    1.0968e+02    3.6208e+02 ;     C2 - C3     - H7    
   252    254    255      1    1.1263e+02    5.0099e+02 ;     C2 - C4     - C5    
   252    254    274      1    1.0968e+02    3.6208e+02 ;     C2 - C4     - H8    
   252    254    275      1    1.0968e+02    3.6208e+02 ;     C2 - C4     - H9    
   253    252    254      1    1.1263e+02    5.0099e+02 ;     C3 - C2     - C4    
   253    252    270      1    1.0968e+02    3.6208e+02 ;     C3 - C2     - H4    
   254    252    270      1    1.0968e+02    3.6208e+02 ;     C4 - C2     - H4    
   254    255    256      1    1.1263e+02    5.0099e+02 ;     C4 - C5     - C6    
   254    255    257      1    1.1263e+02    5.0099e+02 ;     C4 - C5     - C7    
   254    255    276      1    1.0968e+02    3.6208e+02 ;     C4 - C5     - H10   
   255    254    274      1    1.0968e+02    3.6208e+02 ;     C5 - C4     - H8    
   255    254    275      1    1.0968e+02    3.6208e+02 ;     C5 - C4     - H9    
   255    256    277      1    1.0968e+02    3.6208e+02 ;     C5 - C6     - H11   
   255    256    278      1    1.0968e+02    3.6208e+02 ;     C5 - C6     - H12   
   255    256    279      1    1.0968e+02    3.6208e+02 ;     C5 - C6     - H13   
   255    257    258      1    1.1263e+02    5.0099e+02 ;     C5 - C7     - C8    
   255    257    280      1    1.0968e+02    3.6208e+02 ;     C5 - C7     - H14   
   255    257    281      1    1.0968e+02    3.6208e+02 ;     C5 - C7     - H15   
   256    255    257      1    1.1263e+02    5.0099e+02 ;     C6 - C5     - C7    
   256    255    276      1    1.0968e+02    3.6208e+02 ;     C6 - C5     - H10   
   257    255    276      1    1.0968e+02    3.6208e+02 ;     C7 - C5     - H10   
   257    258    259      1    1.1263e+02    5.0099e+02 ;     C7 - C8     - C9    
   257    258    260      1    1.1263e+02    5.0099e+02 ;     C7 - C8     - C10   
   257    258    282      1    1.0968e+02    3.6208e+02 ;     C7 - C8     - H16   
   258    257    280      1    1.0968e+02    3.6208e+02 ;     C8 - C7     - H14   
   258    257    281      1    1.0968e+02    3.6208e+02 ;     C8 - C7     - H15   
   258    259    283      1    1.0968e+02    3.6208e+02 ;     C8 - C9     - H17   
   258    259    284      1    1.0968e+02    3.6208e+02 ;     C8 - C9     - H18   
   258    259    285      1    1.0968e+02    3.6208e+02 ;     C8 - C9     - H19   
   258    260    261      1    1.1263e+02    5.0099e+02 ;     C8 - C10    - C11   
   258    260    286      1    1.0968e+02    3.6208e+02 ;     C8 - C10    - H20   
   258    260    287      1    1.0968e+02    3.6208e+02 ;     C8 - C10    - H21   
   259    258    260      1    1.1263e+02    5.0099e+02 ;     C9 - C8     - C10   
   259    258    282      1    1.0968e+02    3.6208e+02 ;     C9 - C8     - H16   
   260    258    282      1    1.0968e+02    3.6208e+02 ;    C10 - C8     - H16   
   260    261    262      1    1.1263e+02    5.0099e+02 ;    C10 - C11    - C12   
   260    261    263      1    1.1263e+02    5.0099e+02 ;    C10 - C11    - C13   
   260    261    288      1    1.0968e+02    3.6208e+02 ;    C10 - C11    - H22   
   261    260    286      1    1.0968e+02    3.6208e+02 ;    C11 - C10    - H20   
   261    260    287      1    1.0968e+02    3.6208e+02 ;    C11 - C10    - H21   
   261    262    289      1    1.0968e+02    3.6208e+02 ;    C11 - C12    - H23   
   261    262    290      1    1.0968e+02    3.6208e+02 ;    C11 - C12    - H24   
   261    262    291      1    1.0968e+02    3.6208e+02 ;    C11 - C12    - H25   
   261    263    264      1    1.1263e+02    5.0099e+02 ;    C11 - C13    - C14   
   261    263    292      1    1.0968e+02    3.6208e+02 ;    C11 - C13    - H26   
   261    263    293      1    1.0968e+02    3.6208e+02 ;    C11 - C13    - H27   
   262    261    263      1    1.1263e+02    5.0099e+02 ;    C12 - C11    - C13   
   262    261    288      1    1.0968e+02    3.6208e+02 ;    C12 - C11    - H22   
   263    261    288      1    1.0968e+02    3.6208e+02 ;    C13 - C11    - H22   
   263    264    265      1    1.1263e+02    5.0099e+02 ;    C13 - C14    - C15   
   263    264    266      1    1.1263e+02    5.0099e+02 ;    C13 - C14    - C16   
   263    264    294      1    1.0968e+02    3.6208e+02 ;    C13 - C14    - H28   
   264    263    292      1    1.0968e+02    3.6208e+02 ;    C14 - C13    - H26   
   264    263    293      1    1.0968e+02    3.6208e+02 ;    C14 - C13    - H27   
   264    265    295      1    1.0968e+02    3.6208e+02 ;    C14 - C15    - H29   
   264    265    296      1    1.0968e+02    3.6208e+02 ;    C14 - C15    - H30   
   264    265    297      1    1.0968e+02    3.6208e+02 ;    C14 - C15    - H31   
   264    266    298      1    1.0968e+02    3.6208e+02 ;    C14 - C16    - H32   
   264    266    299      1    1.0968e+02    3.6208e+02 ;    C14 - C16    - H33   
   264    266    300      1    1.0968e+02    3.6208e+02 ;    C14 - C16    - H34   
   265    264    266      1    1.1263e+02    5.0099e+02 ;    C15 - C14    - C16   
   265    264    294      1    1.0968e+02    3.6208e+02 ;    C15 - C14    - H28   
   266    264    294      1    1.0968e+02    3.6208e+02 ;    C16 - C14    - H28   
   267    251    268      1    1.0773e+02    2.9957e+02 ;     H1 - C1     - H2    
   267    251    269      1    1.0773e+02    2.9957e+02 ;     H1 - C1     - H3    
   268    251    269      1    1.0773e+02    2.9957e+02 ;     H2 - C1     - H3    
   271    253    272      1    1.0773e+02    2.9957e+02 ;     H5 - C3     - H6    
   271    253    273      1    1.0773e+02    2.9957e+02 ;     H5 - C3     - H7    
   272    253    273      1    1.0773e+02    2.9957e+02 ;     H6 - C3     - H7    
   274    254    275      1    1.0773e+02    2.9957e+02 ;     H8 - C4     - H9    
   277    256    278      1    1.0773e+02    2.9957e+02 ;    H11 - C6     - H12   
   277    256    279      1    1.0773e+02    2.9957e+02 ;    H11 - C6     - H13   
   278    256    279      1    1.0773e+02    2.9957e+02 ;    H12 - C6     - H13   
   280    257    281      1    1.0773e+02    2.9957e+02 ;    H14 - C7     - H15   
   283    259    284      1    1.0773e+02    2.9957e+02 ;    H17 - C9     - H18   
   283    259    285      1    1.0773e+02    2.9957e+02 ;    H17 - C9     - H19   
   284    259    285      1    1.0773e+02    2.9957e+02 ;    H18 - C9     - H19   
   286    260    287      1    1.0773e+02    2.9957e+02 ;    H20 - C10    - H21   
   289    262    290      1    1.0773e+02    2.9957e+02 ;    H23 - C12    - H24   
   289    262    291      1    1.0773e+02    2.9957e+02 ;    H23 - C12    - H25   
   290    262    291      1    1.0773e+02    2.9957e+02 ;    H24 - C12    - H25   
   292    263    293      1    1.0773e+02    2.9957e+02 ;    H26 - C13    - H27   
   295    265    296      1    1.0773e+02    2.9957e+02 ;    H29 - C15    - H30   
   295    265    297      1    1.0773e+02    2.9957e+02 ;    H29 - C15    - H31   
   296    265    297      1    1.0773e+02    2.9957e+02 ;    H30 - C15    - H31   
   298    266    299      1    1.0773e+02    2.9957e+02 ;    H32 - C16    - H33   
   298    266    300      1    1.0773e+02    2.9957e+02 ;    H32 - C16    - H34   
   299    266    300      1    1.0773e+02    2.9957e+02 ;    H33 - C16    - H34   
   301    302    303      1    1.1263e+02    5.0099e+02 ;     C1 - C2     - C3    
   301    302    304      1    1.1263e+02    5.0099e+02 ;     C1 - C2     - C4    
   301    302    320      1    1.0968e+02    3.6208e+02 ;     C1 - C2     - H4    
   302    301    317      1    1.0968e+02    3.6208e+02 ;     C2 - C1     - H1    
   302    301    318      1    1.0968e+02    3.6208e+02 ;     C2 - C1     - H2    
   302    301    319      1    1.0968e+02    3.6208e+02 ;     C2 - C1     - H3    
   302    303    321      1    1.0968e+02    3.6208e+02 ;     C2 - C3     - H5    
   302    303    322      1    1.0968e+02    3.6208e+02 ;     C2 - C3     - H6    
   302    303    323      1    1.0968e+02    3.6208e+02 ;     C2 - C3     - H7    
   302    304    305      1    1.1263e+02    5.0099e+02 ;     C2 - C4     - C5    
   302    304    324      1    1.0968e+02    3.6208e+02 ;     C2 - C4     - H8    
   302    304    325      1    1.0968e+02    3.6208e+02 ;     C2 - C4     - H9    
   303    302    304      1    1.1263e+02    5.0099e+02 ;     C3 - C2     - C4    
   303    302    320      1    1.0968e+02    3.6208e+02 ;     C3 - C2     - H4    
   304    302    320      1    1.0968e+02    3.6208e+02 ;     C4 - C2     - H4    
   304    305    306      1    1.1263e+02    5.0099e+02 ;     C4 - C5     - C6    
   304    305    307      1    1.1263e+02    5.0099e+02 ;     C4 - C5     - C7    
   304    305    326      1    1.0968e+02    3.6208e+02 ;     C4 - C5     - H10   
   305    304    324      1    1.0968e+02    3.6208e+02 ;     C5 - C4     - H8    
   305    304    325      1    1.0968e+02    3.6208e+02 ;     C5 - C4     - H9    
   305    306    327      1    1.0968e+02    3.6208e+02 ;     C5 - C6     - H11   
   305    306    328      1    1.0968e+02    3.6208e+02 ;     C5 - C6     - H12   
   305    306    329      1    1.0968e+02    3.6208e+02 ;     C5 - C6     - H13   
   305    307    308      1    1.1263e+02    5.0099e+02 ;     C5 - C7     - C8    
   305    307    330      1    1.0968e+02    3.6208e+02 ;     C5 - C7     - H14   
   305    307    331      1    1.0968e+02    3.6208e+02 ;     C5 - C7     - H15   
   306    305    307      1    1.1263e+02    5.0099e+02 ;     C6 - C5     - C7    
   306    305    326      1    1.0968e+02    3.6208e+02 ;     C6 - C5     - H10   
   307    305    326      1    1.0968e+02    3.6208e+02 ;     C7 - C5     - H10   
   307    308    309      1    1.1263e+02    5.0099e+02 ;     C7 - C8     - C9    
   307    308    310      1    1.1263e+02    5.0099e+02 ;     C7 - C8     - C10   
   307    308    332      1    1.0968e+02    3.6208e+02 ;     C7 - C8     - H16   
   308    307    330      1    1.0968e+02    3.6208e+02 ;     C8 - C7     - H14   
   308    307    331      1    1.0968e+02    3.6208e+02 ;     C8 - C7     - H15   
   308    309    333      1    1.0968e+02    3.6208e+02 ;     C8 - C9     - H17   
   308    309    334      1    1.0968e+02    3.6208e+02 ;     C8 - C9     - H18   
   308    309    335      1    1.0968e+02    3.6208e+02 ;     C8 - C9     - H19   
   308    310    311      1    1.1263e+02    5.0099e+02 ;     C8 - C10    - C11   
   308    310    336      1    1.0968e+02    3.6208e+02 ;     C8 - C10    - H20   
   308    310    337      1    1.0968e+02    3.6208e+02 ;     C8 - C10    - H21   
   309    308    310      1    1.1263e+02    5.0099e+02 ;     C9 - C8     - C10   
   309    308    332      1    1.0968e+02    3.6208e+02 ;     C9 - C8     - H16   
   310    308    332      1    1.0968e+02    3.6208e+02 ;    C10 - C8     - H16   
   310    311    312      1    1.1263e+02    5.0099e+02 ;    C10 - C11    - C12   
   310    311    313      1    1.1263e+02    5.0099e+02 ;    C10 - C11    - C13   
   310    311    338      1    1.0968e+02    3.6208e+02 ;    C10 - C11    - H22   
   311    310    336      1    1.0968e+02    3.6208e+02 ;    C11 - C10    - H20   
   311    310    337      1    1.0968e+02    3.6208e+02 ;    C11 - C10    - H21   
   311    312    339      1    1.0968e+02    3.6208e+02 ;    C11 - C12    - H23   
   311    312    340      1    1.0968e+02    3.6208e+02 ;    C11 - C12    - H24   
   311    312    341      1    1.0968e+02    3.6208e+02 ;    C11 - C12    - H25   
   311    313    314      1    1.1263e+02    5.0099e+02 ;    C11 - C13    - C14   
   311    313    342      1    1.0968e+02    3.6208e+02 ;    C11 - C13    - H26   
   311    313    343      1    1.0968e+02    3.6208e+02 ;    C11 - C13    - H27   
   312    311    313      1    1.1263e+02    5.0099e+02 ;    C12 - C11    - C13   
   312    311    338      1    1.0968e+02    3.6208e+02 ;    C12 - C11    - H22   
   313    311    338      1    1.0968e+02    3.6208e+02 ;    C13 - C11    - H22   
   313    314    315      1    1.1263e+02    5.0099e+02 ;    C13 - C14    - C15   
   313    314    316      1    1.1263e+02    5.0099e+02 ;    C13 - C14    - C16   
   313    314    344      1    1.0968e+02    3.6208e+02 ;    C13 - C14    - H28   
   314    313    342      1    1.0968e+02    3.6208e+02 ;    C14 - C13    - H26   
   314    313    343      1    1.0968e+02    3.6208e+02 ;    C14 - C13    - H27   
   314    315    345      1    1.0968e+02    3.6208e+02 ;    C14 - C15    - H29   
   314    315    346      1    1.0968e+02    3.6208e+02 ;    C14 - C15    - H30   
   314    315    347      1    1.0968e+02    3.6208e+02 ;    C14 - C15    - H31   
   314    316    348      1    1.0968e+02    3.6208e+02 ;    C14 - C16    - H32   
   314    316    349      1    1.0968e+02    3.6208e+02 ;    C14 - C16    - H33   
   314    316    350      1    1.0968e+02    3.6208e+02 ;    C14 - C16    - H34   
   315    314    316      1    1.1263e+02    5.0099e+02 ;    C15 - C14    - C16   
   315    314    344      1    1.0968e+02    3.6208e+02 ;    C15 - C14    - H28   
   316    314    344      1    1.0968e+02    3.6208e+02 ;    C16 - C14    - H28   
   317    301    318      1    1.0773e+02    2.9957e+02 ;     H1 - C1     - H2    
   317    301    319      1    1.0773e+02    2.9957e+02 ;     H1 - C1     - H3    
   318    301    319      1    1.0773e+02    2.9957e+02 ;     H2 - C1     - H3    
   321    303    322      1    1.0773e+02    2.9957e+02 ;     H5 - C3     - H6    
   321    303    323      1    1.0773e+02    2.9957e+02 ;     H5 - C3     - H7    
   322    303    323      1    1.0773e+02    2.9957e+02 ;     H6 - C3     - H7    
   324    304    325      1    1.0773e+02    2.9957e+02 ;     H8 - C4     - H9    
   327    306    328      1    1.0773e+02    2.9957e+02 ;    H11 - C6     - H12   
   327    306    329      1    1.0773e+02    2.9957e+02 ;    H11 - C6     - H13   
   328    306    329      1    1.0773e+02    2.9957e+02 ;    H12 - C6     - H13   
   330    307    331      1    1.0773e+02    2.9957e+02 ;    H14 - C7     - H15   
   333    309    334      1    1.0773e+02    2.9957e+02 ;    H17 - C9     - H18   
   333    309    335      1    1.0773e+02    2.9957e+02 ;    H17 - C9     - H19   
   334    309    335      1    1.0773e+02    2.9957e+02 ;    H18 - C9     - H19   
   336    310    337      1    1.0773e+02    2.9957e+02 ;    H20 - C10    - H21   
   339    312    340      1    1.0773e+02    2.9957e+02 ;    H23 - C12    - H24   
   339    312    341      1    1.0773e+02    2.9957e+02 ;    H23 - C12    - H25   
   340    312    341      1    1.0773e+02    2.9957e+02 ;    H24 - C12    - H25   
   342    313    343      1    1.0773e+02    2.9957e+02 ;    H26 - C13    - H27   
   345    315    346      1    1.0773e+02    2.9957e+02 ;    H29 - C15    - H30   
   345    315    347      1    1.0773e+02    2.9957e+02 ;    H29 - C15    - H31   
   346    315    347      1    1.0773e+02    2.9957e+02 ;    H30 - C15    - H31   
   348    316    349      1    1.0773e+02    2.9957e+02 ;    H32 - C16    - H33   
   348    316    350      1    1.0773e+02    2.9957e+02 ;    H32 - C16    - H34   
   349    316    350      1    1.0773e+02    2.9957e+02 ;    H33 - C16    - H34   
   351    352    353      1    1.1263e+02    5.0099e+02 ;     C1 - C2     - C3    
   351    352    354      1    1.1263e+02    5.0099e+02 ;     C1 - C2     - C4    
   351    352    370      1    1.0968e+02    3.6208e+02 ;     C1 - C2     - H4    
   352    351    367      1    1.0968e+02    3.6208e+02 ;     C2 - C1     - H1    
   352    351    368      1    1.0968e+02    3.6208e+02 ;     C2 - C1     - H2    
   352    351    369      1    1.0968e+02    3.6208e+02 ;     C2 - C1     - H3    
   352    353    371      1    1.0968e+02    3.6208e+02 ;     C2 - C3     - H5    
   352    353    372      1    1.0968e+02    3.6208e+02 ;     C2 - C3     - H6    
   352    353    373      1    1.0968e+02    3.6208e+02 ;     C2 - C3     - H7    
   352    354    355      1    1.1263e+02    5.0099e+02 ;     C2 - C4     - C5    
   352    354    374      1    1.0968e+02    3.6208e+02 ;     C2 - C4     - H8    
   352    354    375      1    1.0968e+02    3.6208e+02 ;     C2 - C4     - H9    
   353    352    354      1    1.1263e+02    5.0099e+02 ;     C3 - C2     - C4    
   353    352    370      1    1.0968e+02    3.6208e+02 ;     C3 - C2     - H4    
   354    352    370      1    1.0968e+02    3.6208e+02 ;     C4 - C2     - H4    
   354    355    356      1    1.1263e+02    5.0099e+02 ;     C4 - C5     - C6    
   354    355    357      1    1.1263e+02    5.0099e+02 ;     C4 - C5     - C7    
   354    355    376      1    1.0968e+02    3.6208e+02 ;     C4 - C5     - H10   
   355    354    374      1    1.0968e+02    3.6208e+02 ;     C5 - C4     - H8    
   355    354    375      1    1.0968e+02    3.6208e+02 ;     C5 - C4     - H9    
   355    356    377      1    1.0968e+02    3.6208e+02 ;     C5 - C6     - H11   
   355    356    378      1    1.0968e+02    3.6208e+02 ;     C5 - C6     - H12   
   355    356    379      1    1.0968e+02    3.6208e+02 ;     C5 - C6     - H13   
   355    357    358      1    1.1263e+02    5.0099e+02 ;     C5 - C7     - C8    
   355    357    380      1    1.0968e+02    3.6208e+02 ;     C5 - C7     - H14   
   355    357    381      1    1.0968e+02    3.6208e+02 ;     C5 - C7     - H15   
   356    355    357      1    1.1263e+02    5.0099e+02 ;     C6 - C5     - C7    
   356    355    376      1    1.0968e+02    3.6208e+02 ;     C6 - C5     - H10   
   357    355    376      1    1.0968e+02    3.6208e+02 ;     C7 - C5     - H10   
   357    358    359      1    1.1263e+02    5.0099e+02 ;     C7 - C8     - C9    
   357    358    360      1    1.1263e+02    5.0099e+02 ;     C7 - C8     - C10   
   357    358    382      1    1.0968e+02    3.6208e+02 ;     C7 - C8     - H16   
   358    357    380      1    1.0968e+02    3.6208e+02 ;     C8 - C7     - H14   
   358    357    381      1    1.0968e+02    3.6208e+02 ;     C8 - C7     - H15   
   358    359    383      1    1.0968e+02    3.6208e+02 ;     C8 - C9     - H17   
   358    359    384      1    1.0968e+02    3.6208e+02 ;     C8 - C9     - H18   
   358    359    385      1    1.0968e+02    3.6208e+02 ;     C8 - C9     - H19   
   358    360    361      1    1.1263e+02    5.0099e+02 ;     C8 - C10    - C11   
   358    360    386      1    1.0968e+02    3.6208e+02 ;     C8 - C10    - H20   
   358    360    387      1    1.0968e+02    3.6208e+02 ;     C8 - C10    - H21   
   359    358    360      1    1.1263e+02    5.0099e+02 ;     C9 - C8     - C10   
   359    358    382      1    1.0968e+02    3.6208e+02 ;     C9 - C8     - H16   
   360    358    382      1    1.0968e+02    3.6208e+02 ;    C10 - C8     - H16   
   360    361    362      1    1.1263e+02    5.0099e+02 ;    C10 - C11    - C12   
   360    361    363      1    1.1263e+02    5.0099e+02 ;    C10 - C11    - C13   
   360    361    388      1    1.0968e+02    3.6208e+02 ;    C10 - C11    - H22   
   361    360    386      1    1.0968e+02    3.6208e+02 ;    C11 - C10    - H20   
   361    360    387      1    1.0968e+02    3.6208e+02 ;    C11 - C10    - H21   
   361    362    389      1    1.0968e+02    3.6208e+02 ;    C11 - C12    - H23   
   361    362    390      1    1.0968e+02    3.6208e+02 ;    C11 - C12    - H24   
   361    362    391      1    1.0968e+02    3.6208e+02 ;    C11 - C12    - H25   
   361    363    364      1    1.1263e+02    5.0099e+02 ;    C11 - C13    - C14   
   361    363    392      1    1.0968e+02    3.6208e+02 ;    C11 - C13    - H26   
   361    363    393      1    1.0968e+02    3.6208e+02 ;    C11 - C13    - H27   
   362    361    363      1    1.1263e+02    5.0099e+02 ;    C12 - C11    - C13   
   362    361    388      1    1.0968e+02    3.6208e+02 ;    C12 - C11    - H22   
   363    361    388      1    1.0968e+02    3.6208e+02 ;    C13 - C11    - H22   
   363    364    365      1    1.1263e+02    5.0099e+02 ;    C13 - C14    - C15   
   363    364    366      1    1.1263e+02    5.0099e+02 ;    C13 - C14    - C16   
   363    364    394      1    1.0968e+02    3.6208e+02 ;    C13 - C14    - H28   
   364    363    392      1    1.0968e+02    3.6208e+02 ;    C14 - C13    - H26   
   364    363    393      1    1.0968e+02    3.6208e+02 ;    C14 - C13    - H27   
   364    365    395      1    1.0968e+02    3.6208e+02 ;    C14 - C15    - H29   
   364    365    396      1    1.0968e+02    3.6208e+02 ;    C14 - C15    - H30   
   364    365    397      1    1.0968e+02    3.6208e+02 ;    C14 - C15    - H31   
   364    366    398      1    1.0968e+02    3.6208e+02 ;    C14 - C16    - H32   
   364    366    399      1    1.0968e+02    3.6208e+02 ;    C14 - C16    - H33   
   364    366    400      1    1.0968e+02    3.6208e+02 ;    C14 - C16    - H34   
   365    364    366      1    1.1263e+02    5.0099e+02 ;    C15 - C14    - C16   
   365    364    394      1    1.0968e+02    3.6208e+02 ;    C15 - C14    - H28   
   366    364    394      1    1.0968e+02    3.6208e+02 ;    C16 - C14    - H28   
   367    351    368      1    1.0773e+02    2.9957e+02 ;     H1 - C1     - H2    
   367    351    369      1    1.0773e+02    2.9957e+02 ;     H1 - C1     - H3    
   368    351    369      1    1.0773e+02    2.9957e+02 ;     H2 - C1     - H3    
   371    353    372      1    1.0773e+02    2.9957e+02 ;     H5 - C3     - H6    
   371    353    373      1    1.0773e+02    2.9957e+02 ;     H5 - C3     - H7    
   372    353    373      1    1.0773e+02    2.9957e+02 ;     H6 - C3     - H7    
   374    354    375      1    1.0773e+02    2.9957e+02 ;     H8 - C4     - H9    
   377    356    378      1    1.0773e+02    2.9957e+02 ;    H11 - C6     - H12   
   377    356    379      1    1.0773e+02    2.9957e+02 ;    H11 - C6     - H13   
   378    356    379      1    1.0773e+02    2.9957e+02 ;    H12 - C6     - H13   
   380    357    381      1    1.0773e+02    2.9957e+02 ;    H14 - C7     - H15   
   383    359    384      1    1.0773e+02    2.9957e+02 ;    H17 - C9     - H18   
   383    359    385      1    1.0773e+02    2.9957e+02 ;    H17 - C9     - H19   
   384    359    385      1    1.0773e+02    2.9957e+02 ;    H18 - C9     - H19   
   386    360    387      1    1.0773e+02    2.9957e+02 ;    H20 - C10    - H21   
   389    362    390      1    1.0773e+02    2.9957e+02 ;    H23 - C12    - H24   
   389    362    391      1    1.0773e+02    2.9957e+02 ;    H23 - C12    - H25   
   390    362    391      1    1.0773e+02    2.9957e+02 ;    H24 - C12    - H25   
   392    363    393      1    1.0773e+02    2.9957e+02 ;    H26 - C13    - H27   
   395    365    396      1    1.0773e+02    2.9957e+02 ;    H29 - C15    - H30   
   395    365    397      1    1.0773e+02    2.9957e+02 ;    H29 - C15    - H31   
   396    365    397      1    1.0773e+02    2.9957e+02 ;    H30 - C15    - H31   
   398    366    399      1    1.0773e+02    2.9957e+02 ;    H32 - C16    - H33   
   398    366    400      1    1.0773e+02    2.9957e+02 ;    H32 - C16    - H34   
   399    366    400      1    1.0773e+02    2.9957e+02 ;    H33 - C16    - H34   
   401    402    403      1    1.1263e+02    5.0099e+02 ;     C1 - C2     - C3    
   401    402    404      1    1.1263e+02    5.0099e+02 ;     C1 - C2     - C4    
   401    402    420      1    1.0968e+02    3.6208e+02 ;     C1 - C2     - H4    
   402    401    417      1    1.0968e+02    3.6208e+02 ;     C2 - C1     - H1    
   402    401    418      1    1.0968e+02    3.6208e+02 ;     C2 - C1     - H2    
   402    401    419      1    1.0968e+02    3.6208e+02 ;     C2 - C1     - H3    
   402    403    421      1    1.0968e+02    3.6208e+02 ;     C2 - C3     - H5    
   402    403    422      1    1.0968e+02    3.6208e+02 ;     C2 - C3     - H6    
   402    403    423      1    1.0968e+02    3.6208e+02 ;     C2 - C3     - H7    
   402    404    405      1    1.1263e+02    5.0099e+02 ;     C2 - C4     - C5    
   402    404    424      1    1.0968e+02    3.6208e+02 ;     C2 - C4     - H8    
   402    404    425      1    1.0968e+02    3.6208e+02 ;     C2 - C4     - H9    
   403    402    404      1    1.1263e+02    5.0099e+02 ;     C3 - C2     - C4    
   403    402    420      1    1.0968e+02    3.6208e+02 ;     C3 - C2     - H4    
   404    402    420      1    1.0968e+02    3.6208e+02 ;     C4 - C2     - H4    
   404    405    406      1    1.1263e+02    5.0099e+02 ;     C4 - C5     - C6    
   404    405    407      1    1.1263e+02    5.0099e+02 ;     C4 - C5     - C7    
   404    405    426      1    1.0968e+02    3.6208e+02 ;     C4 - C5     - H10   
   405    404    424      1    1.0968e+02    3.6208e+02 ;     C5 - C4     - H8    
   405    404    425      1    1.0968e+02    3.6208e+02 ;     C5 - C4     - H9    
   405    406    427      1    1.0968e+02    3.6208e+02 ;     C5 - C6     - H11   
   405    406    428      1    1.0968e+02    3.6208e+02 ;     C5 - C6     - H12   
   405    406    429      1    1.0968e+02    3.6208e+02 ;     C5 - C6     - H13   
   405    407    408      1    1.1263e+02    5.0099e+02 ;     C5 - C7     - C8    
   405    407    430      1    1.0968e+02    3.6208e+02 ;     C5 - C7     - H14   
   405    407    431      1    1.0968e+02    3.6208e+02 ;     C5 - C7     - H15   
   406    405    407      1    1.1263e+02    5.0099e+02 ;     C6 - C5     - C7    
   406    405    426      1    1.0968e+02    3.6208e+02 ;     C6 - C5     - H10   
   407    405    426      1    1.0968e+02    3.6208e+02 ;     C7 - C5     - H10   
   407    408    409      1    1.1263e+02    5.0099e+02 ;     C7 - C8     - C9    
   407    408    410      1    1.1263e+02    5.0099e+02 ;     C7 - C8     - C10   
   407    408    432      1    1.0968e+02    3.6208e+02 ;     C7 - C8     - H16   
   408    407    430      1    1.0968e+02    3.6208e+02 ;     C8 - C7     - H14   
   408    407    431      1    1.0968e+02    3.6208e+02 ;     C8 - C7     - H15   
   408    409    433      1    1.0968e+02    3.6208e+02 ;     C8 - C9     - H17   
   408    409    434      1    1.0968e+02    3.6208e+02 ;     C8 - C9     - H18   
   408    409    435      1    1.0968e+02    3.6208e+02 ;     C8 - C9     - H19   
   408    410    411      1    1.1263e+02    5.0099e+02 ;     C8 - C10    - C11   
   408    410    436      1    1.0968e+02    3.6208e+02 ;     C8 - C10    - H20   
   408    410    437      1    1.0968e+02    3.6208e+02 ;     C8 - C10    - H21   
   409    408    410      1    1.1263e+02    5.0099e+02 ;     C9 - C8     - C10   
   409    408    432      1    1.0968e+02    3.6208e+02 ;     C9 - C8     - H16   
   410    408    432      1    1.0968e+02    3.6208e+02 ;    C10 - C8     - H16   
   410    411    412      1    1.1263e+02    5.0099e+02 ;    C10 - C11    - C12   
   410    411    413      1    1.1263e+02    5.0099e+02 ;    C10 - C11    - C13   
   410    411    438      1    1.0968e+02    3.6208e+02 ;    C10 - C11    - H22   
   411    410    436      1    1.0968e+02    3.6208e+02 ;    C11 - C10    - H20   
   411    410    437      1    1.0968e+02    3.6208e+02 ;    C11 - C10    - H21   
   411    412    439      1    1.0968e+02    3.6208e+02 ;    C11 - C12    - H23   
   411    412    440      1    1.0968e+02    3.6208e+02 ;    C11 - C12    - H24   
   411    412    441      1    1.0968e+02    3.6208e+02 ;    C11 - C12    - H25   
   411    413    414      1    1.1263e+02    5.0099e+02 ;    C11 - C13    - C14   
   411    413    442      1    1.0968e+02    3.6208e+02 ;    C11 - C13    - H26   
   411    413    443      1    1.0968e+02    3.6208e+02 ;    C11 - C13    - H27   
   412    411    413      1    1.1263e+02    5.0099e+02 ;    C12 - C11    - C13   
   412    411    438      1    1.0968e+02    3.6208e+02 ;    C12 - C11    - H22   
   413    411    438      1    1.0968e+02    3.6208e+02 ;    C13 - C11    - H22   
   413    414    415      1    1.1263e+02    5.0099e+02 ;    C13 - C14    - C15   
   413    414    416      1    1.1263e+02    5.0099e+02 ;    C13 - C14    - C16   
   413    414    444      1    1.0968e+02    3.6208e+02 ;    C13 - C14    - H28   
   414    413    442      1    1.0968e+02    3.6208e+02 ;    C14 - C13    - H26   
   414    413    443      1    1.0968e+02    3.6208e+02 ;    C14 - C13    - H27   
   414    415    445      1    1.0968e+02    3.6208e+02 ;    C14 - C15    - H29   
   414    415    446      1    1.0968e+02    3.6208e+02 ;    C14 - C15    - H30   
   414    415    447      1    1.0968e+02    3.6208e+02 ;    C14 - C15    - H31   
   414    416    448      1    1.0968e+02    3.6208e+02 ;    C14 - C16    - H32   
   414    416    449      1    1.0968e+02    3.6208e+02 ;    C14 - C16    - H33   
   414    416    450      1    1.0968e+02    3.6208e+02 ;    C14 - C16    - H34   
   415    414    416      1    1.1263e+02    5.0099e+02 ;    C15 - C14    - C16   
   415    414    444      1    1.0968e+02    3.6208e+02 ;    C15 - C14    - H28   
   416    414    444      1    1.0968e+02    3.6208e+02 ;    C16 - C14    - H28   
   417    401    418      1    1.0773e+02    2.9957e+02 ;     H1 - C1     - H2    
   417    401    419      1    1.0773e+02    2.9957e+02 ;     H1 - C1     - H3    
   418    401    419      1    1.0773e+02    2.9957e+02 ;     H2 - C1     - H3    
   421    403    422      1    1.0773e+02    2.9957e+02 ;     H5 - C3     - H6    
   421    403    423      1    1.0773e+02    2.9957e+02 ;     H5 - C3     - H7    
   422    403    423      1    1.0773e+02    2.9957e+02 ;     H6 - C3     - H7    
   424    404    425      1    1.0773e+02    2.9957e+02 ;     H8 - C4     - H9    
   427    406    428      1    1.0773e+02    2.9957e+02 ;    H11 - C6     - H12   
   427    406    429      1    1.0773e+02    2.9957e+02 ;    H11 - C6     - H13   
   428    406    429      1    1.0773e+02    2.9957e+02 ;    H12 - C6     - H13   
   430    407    431      1    1.0773e+02    2.9957e+02 ;    H14 - C7     - H15   
   433    409    434      1    1.0773e+02    2.9957e+02 ;    H17 - C9     - H18   
   433    409    435      1    1.0773e+02    2.9957e+02 ;    H17 - C9     - H19   
   434    409    435      1    1.0773e+02    2.9957e+02 ;    H18 - C9     - H19   
   436    410    437      1    1.0773e+02    2.9957e+02 ;    H20 - C10    - H21   
   439    412    440      1    1.0773e+02    2.9957e+02 ;    H23 - C12    - H24   
   439    412    441      1    1.0773e+02    2.9957e+02 ;    H23 - C12    - H25   
   440    412    441      1    1.0773e+02    2.9957e+02 ;    H24 - C12    - H25   
   442    413    443      1    1.0773e+02    2.9957e+02 ;    H26 - C13    - H27   
   445    415    446      1    1.0773e+02    2.9957e+02 ;    H29 - C15    - H30   
   445    415    447      1    1.0773e+02    2.9957e+02 ;    H29 - C15    - H31   
   446    415    447      1    1.0773e+02    2.9957e+02 ;    H30 - C15    - H31   
   448    416    449      1    1.0773e+02    2.9957e+02 ;    H32 - C16    - H33   
   448    416    450      1    1.0773e+02    2.9957e+02 ;    H32 - C16    - H34   
   449    416    450      1    1.0773e+02    2.9957e+02 ;    H33 - C16    - H34   
   451    452    453      1    1.1263e+02    5.0099e+02 ;     C1 - C2     - C3    
   451    452    454      1    1.1263e+02    5.0099e+02 ;     C1 - C2     - C4    
   451    452    470      1    1.0968e+02    3.6208e+02 ;     C1 - C2     - H4    
   452    451    467      1    1.0968e+02    3.6208e+02 ;     C2 - C1     - H1    
   452    451    468      1    1.0968e+02    3.6208e+02 ;     C2 - C1     - H2    
   452    451    469      1    1.0968e+02    3.6208e+02 ;     C2 - C1     - H3    
   452    453    471      1    1.0968e+02    3.6208e+02 ;     C2 - C3     - H5    
   452    453    472      1    1.0968e+02    3.6208e+02 ;     C2 - C3     - H6    
   452    453    473      1    1.0968e+02    3.6208e+02 ;     C2 - C3     - H7    
   452    454    455      1    1.1263e+02    5.0099e+02 ;     C2 - C4     - C5    
   452    454    474      1    1.0968e+02    3.6208e+02 ;     C2 - C4     - H8    
   452    454    475      1    1.0968e+02    3.6208e+02 ;     C2 - C4     - H9    
   453    452    454      1    1.1263e+02    5.0099e+02 ;     C3 - C2     - C4    
   453    452    470      1    1.0968e+02    3.6208e+02 ;     C3 - C2     - H4    
   454    452    470      1    1.0968e+02    3.6208e+02 ;     C4 - C2     - H4    
   454    455    456      1    1.1263e+02    5.0099e+02 ;     C4 - C5     - C6    
   454    455    457      1    1.1263e+02    5.0099e+02 ;     C4 - C5     - C7    
   454    455    476      1    1.0968e+02    3.6208e+02 ;     C4 - C5     - H10   
   455    454    474      1    1.0968e+02    3.6208e+02 ;     C5 - C4     - H8    
   455    454    475      1    1.0968e+02    3.6208e+02 ;     C5 - C4     - H9    
   455    456    477      1    1.0968e+02    3.6208e+02 ;     C5 - C6     - H11   
   455    456    478      1    1.0968e+02    3.6208e+02 ;     C5 - C6     - H12   
   455    456    479      1    1.0968e+02    3.6208e+02 ;     C5 - C6     - H13   
   455    457    458      1    1.1263e+02    5.0099e+02 ;     C5 - C7     - C8    
   455    457    480      1    1.0968e+02    3.6208e+02 ;     C5 - C7     - H14   
   455    457    481      1    1.0968e+02    3.6208e+02 ;     C5 - C7     - H15   
   456    455    457      1    1.1263e+02    5.0099e+02 ;     C6 - C5     - C7    
   456    455    476      1    1.0968e+02    3.6208e+02 ;     C6 - C5     - H10   
   457    455    476      1    1.0968e+02    3.6208e+02 ;     C7 - C5     - H10   
   457    458    459      1    1.1263e+02    5.0099e+02 ;     C7 - C8     - C9    
   457    458    460      1    1.1263e+02    5.0099e+02 ;     C7 - C8     - C10   
   457    458    482      1    1.0968e+02    3.6208e+02 ;     C7 - C8     - H16   
   458    457    480      1    1.0968e+02    3.6208e+02 ;     C8 - C7     - H14   
   458    457    481      1    1.0968e+02    3.6208e+02 ;     C8 - C7     - H15   
   458    459    483      1    1.0968e+02    3.6208e+02 ;     C8 - C9     - H17   
   458    459    484      1    1.0968e+02    3.6208e+02 ;     C8 - C9     - H18   
   458    459    485      1    1.0968e+02    3.6208e+02 ;     C8 - C9     - H19   
   458    460    461      1    1.1263e+02    5.0099e+02 ;     C8 - C10    - C11   
   458    460    486      1    1.0968e+02    3.6208e+02 ;     C8 - C10    - H20   
   458    460    487      1    1.0968e+02    3.6208e+02 ;     C8 - C10    - H21   
   459    458    460      1    1.1263e+02    5.0099e+02 ;     C9 - C8     - C10   
   459    458    482      1    1.0968e+02    3.6208e+02 ;     C9 - C8     - H16   
   460    458    482      1    1.0968e+02    3.6208e+02 ;    C10 - C8     - H16   
   460    461    462      1    1.1263e+02    5.0099e+02 ;    C10 - C11    - C12   
   460    461    463      1    1.1263e+02    5.0099e+02 ;    C10 - C11    - C13   
   460    461    488      1    1.0968e+02    3.6208e+02 ;    C10 - C11    - H22   
   461    460    486      1    1.0968e+02    3.6208e+02 ;    C11 - C10    - H20   
   461    460    487      1    1.0968e+02    3.6208e+02 ;    C11 - C10    - H21   
   461    462    489      1    1.0968e+02    3.6208e+02 ;    C11 - C12    - H23   
   461    462    490      1    1.0968e+02    3.6208e+02 ;    C11 - C12    - H24   
   461    462    491      1    1.0968e+02    3.6208e+02 ;    C11 - C12    - H25   
   461    463    464      1    1.1263e+02    5.0099e+02 ;    C11 - C13    - C14   
   461    463    492      1    1.0968e+02    3.6208e+02 ;    C11 - C13    - H26   
   461    463    493      1    1.0968e+02    3.6208e+02 ;    C11 - C13    - H27   
   462    461    463      1    1.1263e+02    5.0099e+02 ;    C12 - C11    - C13   
   462    461    488      1    1.0968e+02    3.6208e+02 ;    C12 - C11    - H22   
   463    461    488      1    1.0968e+02    3.6208e+02 ;    C13 - C11    - H22   
   463    464    465      1    1.1263e+02    5.0099e+02 ;    C13 - C14    - C15   
   463    464    466      1    1.1263e+02    5.0099e+02 ;    C13 - C14    - C16   
   463    464    494      1    1.0968e+02    3.6208e+02 ;    C13 - C14    - H28   
   464    463    492      1    1.0968e+02    3.6208e+02 ;    C14 - C13    - H26   
   464    463    493      1    1.0968e+02    3.6208e+02 ;    C14 - C13    - H27   
   464    465    495      1    1.0968e+02    3.6208e+02 ;    C14 - C15    - H29   
   464    465    496      1    1.0968e+02    3.6208e+02 ;    C14 - C15    - H30   
   464    465    497      1    1.0968e+02    3.6208e+02 ;    C14 - C15    - H31   
   464    466    498      1    1.0968e+02    3.6208e+02 ;    C14 - C16    - H32   
   464    466    499      1    1.0968e+02    3.6208e+02 ;    C14 - C16    - H33   
   464    466    500      1    1.0968e+02    3.6208e+02 ;    C14 - C16    - H34   
   465    464    466      1    1.1263e+02    5.0099e+02 ;    C15 - C14    - C16   
   465    464    494      1    1.0968e+02    3.6208e+02 ;    C15 - C14    - H28   
   466    464    494      1    1.0968e+02    3.6208e+02 ;    C16 - C14    - H28   
   467    451    468      1    1.0773e+02    2.9957e+02 ;     H1 - C1     - H2    
   467    451    469      1    1.0773e+02    2.9957e+02 ;     H1 - C1     - H3    
   468    451    469      1    1.0773e+02    2.9957e+02 ;     H2 - C1     - H3    
   471    453    472      1    1.0773e+02    2.9957e+02 ;     H5 - C3     - H6    
   471    453    473      1    1.0773e+02    2.9957e+02 ;     H5 - C3     - H7    
   472    453    473      1    1.0773e+02    2.9957e+02 ;     H6 - C3     - H7    
   474    454    475      1    1.0773e+02    2.9957e+02 ;     H8 - C4     - H9    
   477    456    478      1    1.0773e+02    2.9957e+02 ;    H11 - C6     - H12   
   477    456    479      1    1.0773e+02    2.9957e+02 ;    H11 - C6     - H13   
   478    456    479      1    1.0773e+02    2.9957e+02 ;    H12 - C6     - H13   
   480    457    481      1    1.0773e+02    2.9957e+02 ;    H14 - C7     - H15   
   483    459    484      1    1.0773e+02    2.9957e+02 ;    H17 - C9     - H18   
   483    459    485      1    1.0773e+02    2.9957e+02 ;    H17 - C9     - H19   
   484    459    485      1    1.0773e+02    2.9957e+02 ;    H18 - C9     - H19   
   486    460    487      1    1.0773e+02    2.9957e+02 ;    H20 - C10    - H21   
   489    462    490      1    1.0773e+02    2.9957e+02 ;    H23 - C12    - H24   
   489    462    491      1    1.0773e+02    2.9957e+02 ;    H23 - C12    - H25   
   490    462    491      1    1.0773e+02    2.9957e+02 ;    H24 - C12    - H25   
   492    463    493      1    1.0773e+02    2.9957e+02 ;    H26 - C13    - H27   
   495    465    496      1    1.0773e+02    2.9957e+02 ;    H29 - C15    - H30   
   495    465    497      1    1.0773e+02    2.9957e+02 ;    H29 - C15    - H31   
   496    465    497      1    1.0773e+02    2.9957e+02 ;    H30 - C15    - H31   
   498    466    499      1    1.0773e+02    2.9957e+02 ;    H32 - C16    - H33   
   498    466    500      1    1.0773e+02    2.9957e+02 ;    H32 - C16    - H34   
   499    466    500      1    1.0773e+02    2.9957e+02 ;    H33 - C16    - H34   
   501    502    503      1    1.1263e+02    5.0099e+02 ;     C1 - C2     - C3    
   501    502    504      1    1.1263e+02    5.0099e+02 ;     C1 - C2     - C4    
   501    502    520      1    1.0968e+02    3.6208e+02 ;     C1 - C2     - H4    
   502    501    517      1    1.0968e+02    3.6208e+02 ;     C2 - C1     - H1    
   502    501    518      1    1.0968e+02    3.6208e+02 ;     C2 - C1     - H2    
   502    501    519      1    1.0968e+02    3.6208e+02 ;     C2 - C1     - H3    
   502    503    521      1    1.0968e+02    3.6208e+02 ;     C2 - C3     - H5    
   502    503    522      1    1.0968e+02    3.6208e+02 ;     C2 - C3     - H6    
   502    503    523      1    1.0968e+02    3.6208e+02 ;     C2 - C3     - H7    
   502    504    505      1    1.1263e+02    5.0099e+02 ;     C2 - C4     - C5    
   502    504    524      1    1.0968e+02    3.6208e+02 ;     C2 - C4     - H8    
   502    504    525      1    1.0968e+02    3.6208e+02 ;     C2 - C4     - H9    
   503    502    504      1    1.1263e+02    5.0099e+02 ;     C3 - C2     - C4    
   503    502    520      1    1.0968e+02    3.6208e+02 ;     C3 - C2     - H4    
   504    502    520      1    1.0968e+02    3.6208e+02 ;     C4 - C2     - H4    
   504    505    506      1    1.1263e+02    5.0099e+02 ;     C4 - C5     - C6    
   504    505    507      1    1.1263e+02    5.0099e+02 ;     C4 - C5     - C7    
   504    505    526      1    1.0968e+02    3.6208e+02 ;     C4 - C5     - H10   
   505    504    524      1    1.0968e+02    3.6208e+02 ;     C5 - C4     - H8    
   505    504    525      1    1.0968e+02    3.6208e+02 ;     C5 - C4     - H9    
   505    506    527      1    1.0968e+02    3.6208e+02 ;     C5 - C6     - H11   
   505    506    528      1    1.0968e+02    3.6208e+02 ;     C5 - C6     - H12   
   505    506    529      1    1.0968e+02    3.6208e+02 ;     C5 - C6     - H13   
   505    507    508      1    1.1263e+02    5.0099e+02 ;     C5 - C7     - C8    
   505    507    530      1    1.0968e+02    3.6208e+02 ;     C5 - C7     - H14   
   505    507    531      1    1.0968e+02    3.6208e+02 ;     C5 - C7     - H15   
   506    505    507      1    1.1263e+02    5.0099e+02 ;     C6 - C5     - C7    
   506    505    526      1    1.0968e+02    3.6208e+02 ;     C6 - C5     - H10   
   507    505    526      1    1.0968e+02    3.6208e+02 ;     C7 - C5     - H10   
   507    508    509      1    1.1263e+02    5.0099e+02 ;     C7 - C8     - C9    
   507    508    510      1    1.1263e+02    5.0099e+02 ;     C7 - C8     - C10   
   507    508    532      1    1.0968e+02    3.6208e+02 ;     C7 - C8     - H16   
   508    507    530      1    1.0968e+02    3.6208e+02 ;     C8 - C7     - H14   
   508    507    531      1    1.0968e+02    3.6208e+02 ;     C8 - C7     - H15   
   508    509    533      1    1.0968e+02    3.6208e+02 ;     C8 - C9     - H17   
   508    509    534      1    1.0968e+02    3.6208e+02 ;     C8 - C9     - H18   
   508    509    535      1    1.0968e+02    3.6208e+02 ;     C8 - C9     - H19   
   508    510    511      1    1.1263e+02    5.0099e+02 ;     C8 - C10    - C11   
   508    510    536      1    1.0968e+02    3.6208e+02 ;     C8 - C10    - H20   
   508    510    537      1    1.0968e+02    3.6208e+02 ;     C8 - C10    - H21   
   509    508    510      1    1.1263e+02    5.0099e+02 ;     C9 - C8     - C10   
   509    508    532      1    1.0968e+02    3.6208e+02 ;     C9 - C8     - H16   
   510    508    532      1    1.0968e+02    3.6208e+02 ;    C10 - C8     - H16   
   510    511    512      1    1.1263e+02    5.0099e+02 ;    C10 - C11    - C12   
   510    511    513      1    1.1263e+02    5.0099e+02 ;    C10 - C11    - C13   
   510    511    538      1    1.0968e+02    3.6208e+02 ;    C10 - C11    - H22   
   511    510    536      1    1.0968e+02    3.6208e+02 ;    C11 - C10    - H20   
   511    510    537      1    1.0968e+02    3.6208e+02 ;    C11 - C10    - H21   
   511    512    539      1    1.0968e+02    3.6208e+02 ;    C11 - C12    - H23   
   511    512    540      1    1.0968e+02    3.6208e+02 ;    C11 - C12    - H24   
   511    512    541      1    1.0968e+02    3.6208e+02 ;    C11 - C12    - H25   
   511    513    514      1    1.1263e+02    5.0099e+02 ;    C11 - C13    - C14   
   511    513    542      1    1.0968e+02    3.6208e+02 ;    C11 - C13    - H26   
   511    513    543      1    1.0968e+02    3.6208e+02 ;    C11 - C13    - H27   
   512    511    513      1    1.1263e+02    5.0099e+02 ;    C12 - C11    - C13   
   512    511    538      1    1.0968e+02    3.6208e+02 ;    C12 - C11    - H22   
   513    511    538      1    1.0968e+02    3.6208e+02 ;    C13 - C11    - H22   
   513    514    515      1    1.1263e+02    5.0099e+02 ;    C13 - C14    - C15   
   513    514    516      1    1.1263e+02    5.0099e+02 ;    C13 - C14    - C16   
   513    514    544      1    1.0968e+02    3.6208e+02 ;    C13 - C14    - H28   
   514    513    542      1    1.0968e+02    3.6208e+02 ;    C14 - C13    - H26   
   514    513    543      1    1.0968e+02    3.6208e+02 ;    C14 - C13    - H27   
   514    515    545      1    1.0968e+02    3.6208e+02 ;    C14 - C15    - H29   
   514    515    546      1    1.0968e+02    3.6208e+02 ;    C14 - C15    - H30   
   514    515    547      1    1.0968e+02    3.6208e+02 ;    C14 - C15    - H31   
   514    516    548      1    1.0968e+02    3.6208e+02 ;    C14 - C16    - H32   
   514    516    549      1    1.0968e+02    3.6208e+02 ;    C14 - C16    - H33   
   514    516    550      1    1.0968e+02    3.6208e+02 ;    C14 - C16    - H34   
   515    514    516      1    1.1263e+02    5.0099e+02 ;    C15 - C14    - C16   
   515    514    544      1    1.0968e+02    3.6208e+02 ;    C15 - C14    - H28   
   516    514    544      1    1.0968e+02    3.6208e+02 ;    C16 - C14    - H28   
   517    501    518      1    1.0773e+02    2.9957e+02 ;     H1 - C1     - H2    
   517    501    519      1    1.0773e+02    2.9957e+02 ;     H1 - C1     - H3    
   518    501    519      1    1.0773e+02    2.9957e+02 ;     H2 - C1     - H3    
   521    503    522      1    1.0773e+02    2.9957e+02 ;     H5 - C3     - H6    
   521    503    523      1    1.0773e+02    2.9957e+02 ;     H5 - C3     - H7    
   522    503    523      1    1.0773e+02    2.9957e+02 ;     H6 - C3     - H7    
   524    504    525      1    1.0773e+02    2.9957e+02 ;     H8 - C4     - H9    
   527    506    528      1    1.0773e+02    2.9957e+02 ;    H11 - C6     - H12   
   527    506    529      1    1.0773e+02    2.9957e+02 ;    H11 - C6     - H13   
   528    506    529      1    1.0773e+02    2.9957e+02 ;    H12 - C6     - H13   
   530    507    531      1    1.0773e+02    2.9957e+02 ;    H14 - C7     - H15   
   533    509    534      1    1.0773e+02    2.9957e+02 ;    H17 - C9     - H18   
   533    509    535      1    1.0773e+02    2.9957e+02 ;    H17 - C9     - H19   
   534    509    535      1    1.0773e+02    2.9957e+02 ;    H18 - C9     - H19   
   536    510    537      1    1.0773e+02    2.9957e+02 ;    H20 - C10    - H21   
   539    512    540      1    1.0773e+02    2.9957e+02 ;    H23 - C12    - H24   
   539    512    541      1    1.0773e+02    2.9957e+02 ;    H23 - C12    - H25   
   540    512    541      1    1.0773e+02    2.9957e+02 ;    H24 - C12    - H25   
   542    513    543      1    1.0773e+02    2.9957e+02 ;    H26 - C13    - H27   
   545    515    546      1    1.0773e+02    2.9957e+02 ;    H29 - C15    - H30   
   545    515    547      1    1.0773e+02    2.9957e+02 ;    H29 - C15    - H31   
   546    515    547      1    1.0773e+02    2.9957e+02 ;    H30 - C15    - H31   
   548    516    549      1    1.0773e+02    2.9957e+02 ;    H32 - C16    - H33   
   548    516    550      1    1.0773e+02    2.9957e+02 ;    H32 - C16    - H34   
   549    516    550      1    1.0773e+02    2.9957e+02 ;    H33 - C16    - H34   
   551    552    553      1    1.1263e+02    5.0099e+02 ;     C1 - C2     - C3    
   551    552    554      1    1.1263e+02    5.0099e+02 ;     C1 - C2     - C4    
   551    552    570      1    1.0968e+02    3.6208e+02 ;     C1 - C2     - H4    
   552    551    567      1    1.0968e+02    3.6208e+02 ;     C2 - C1     - H1    
   552    551    568      1    1.0968e+02    3.6208e+02 ;     C2 - C1     - H2    
   552    551    569      1    1.0968e+02    3.6208e+02 ;     C2 - C1     - H3    
   552    553    571      1    1.0968e+02    3.6208e+02 ;     C2 - C3     - H5    
   552    553    572      1    1.0968e+02    3.6208e+02 ;     C2 - C3     - H6    
   552    553    573      1    1.0968e+02    3.6208e+02 ;     C2 - C3     - H7    
   552    554    555      1    1.1263e+02    5.0099e+02 ;     C2 - C4     - C5    
   552    554    574      1    1.0968e+02    3.6208e+02 ;     C2 - C4     - H8    
   552    554    575      1    1.0968e+02    3.6208e+02 ;     C2 - C4     - H9    
   553    552    554      1    1.1263e+02    5.0099e+02 ;     C3 - C2     - C4    
   553    552    570      1    1.0968e+02    3.6208e+02 ;     C3 - C2     - H4    
   554    552    570      1    1.0968e+02    3.6208e+02 ;     C4 - C2     - H4    
   554    555    556      1    1.1263e+02    5.0099e+02 ;     C4 - C5     - C6    
   554    555    557      1    1.1263e+02    5.0099e+02 ;     C4 - C5     - C7    
   554    555    576      1    1.0968e+02    3.6208e+02 ;     C4 - C5     - H10   
   555    554    574      1    1.0968e+02    3.6208e+02 ;     C5 - C4     - H8    
   555    554    575      1    1.0968e+02    3.6208e+02 ;     C5 - C4     - H9    
   555    556    577      1    1.0968e+02    3.6208e+02 ;     C5 - C6     - H11   
   555    556    578      1    1.0968e+02    3.6208e+02 ;     C5 - C6     - H12   
   555    556    579      1    1.0968e+02    3.6208e+02 ;     C5 - C6     - H13   
   555    557    558      1    1.1263e+02    5.0099e+02 ;     C5 - C7     - C8    
   555    557    580      1    1.0968e+02    3.6208e+02 ;     C5 - C7     - H14   
   555    557    581      1    1.0968e+02    3.6208e+02 ;     C5 - C7     - H15   
   556    555    557      1    1.1263e+02    5.0099e+02 ;     C6 - C5     - C7    
   556    555    576      1    1.0968e+02    3.6208e+02 ;     C6 - C5     - H10   
   557    555    576      1    1.0968e+02    3.6208e+02 ;     C7 - C5     - H10   
   557    558    559      1    1.1263e+02    5.0099e+02 ;     C7 - C8     - C9    
   557    558    560      1    1.1263e+02    5.0099e+02 ;     C7 - C8     - C10   
   557    558    582      1    1.0968e+02    3.6208e+02 ;     C7 - C8     - H16   
   558    557    580      1    1.0968e+02    3.6208e+02 ;     C8 - C7     - H14   
   558    557    581      1    1.0968e+02    3.6208e+02 ;     C8 - C7     - H15   
   558    559    583      1    1.0968e+02    3.6208e+02 ;     C8 - C9     - H17   
   558    559    584      1    1.0968e+02    3.6208e+02 ;     C8 - C9     - H18   
   558    559    585      1    1.0968e+02    3.6208e+02 ;     C8 - C9     - H19   
   558    560    561      1    1.1263e+02    5.0099e+02 ;     C8 - C10    - C11   
   558    560    586      1    1.0968e+02    3.6208e+02 ;     C8 - C10    - H20   
   558    560    587      1    1.0968e+02    3.6208e+02 ;     C8 - C10    - H21   
   559    558    560      1    1.1263e+02    5.0099e+02 ;     C9 - C8     - C10   
   559    558    582      1    1.0968e+02    3.6208e+02 ;     C9 - C8     - H16   
   560    558    582      1    1.0968e+02    3.6208e+02 ;    C10 - C8     - H16   
   560    561    562      1    1.1263e+02    5.0099e+02 ;    C10 - C11    - C12   
   560    561    563      1    1.1263e+02    5.0099e+02 ;    C10 - C11    - C13   
   560    561    588      1    1.0968e+02    3.6208e+02 ;    C10 - C11    - H22   
   561    560    586      1    1.0968e+02    3.6208e+02 ;    C11 - C10    - H20   
   561    560    587      1    1.0968e+02    3.6208e+02 ;    C11 - C10    - H21   
   561    562    589      1    1.0968e+02    3.6208e+02 ;    C11 - C12    - H23   
   561    562    590      1    1.0968e+02    3.6208e+02 ;    C11 - C12    - H24   
   561    562    591      1    1.0968e+02    3.6208e+02 ;    C11 - C12    - H25   
   561    563    564      1    1.1263e+02    5.0099e+02 ;    C11 - C13    - C14   
   561    563    592      1    1.0968e+02    3.6208e+02 ;    C11 - C13    - H26   
   561    563    593      1    1.0968e+02    3.6208e+02 ;    C11 - C13    - H27   
   562    561    563      1    1.1263e+02    5.0099e+02 ;    C12 - C11    - C13   
   562    561    588      1    1.0968e+02    3.6208e+02 ;    C12 - C11    - H22   
   563    561    588      1    1.0968e+02    3.6208e+02 ;    C13 - C11    - H22   
   563    564    565      1    1.1263e+02    5.0099e+02 ;    C13 - C14    - C15   
   563    564    566      1    1.1263e+02    5.0099e+02 ;    C13 - C14    - C16   
   563    564    594      1    1.0968e+02    3.6208e+02 ;    C13 - C14    - H28   
   564    563    592      1    1.0968e+02    3.6208e+02 ;    C14 - C13    - H26   
   564    563    593      1    1.0968e+02    3.6208e+02 ;    C14 - C13    - H27   
   564    565    595      1    1.0968e+02    3.6208e+02 ;    C14 - C15    - H29   
   564    565    596      1    1.0968e+02    3.6208e+02 ;    C14 - C15    - H30   
   564    565    597      1    1.0968e+02    3.6208e+02 ;    C14 - C15    - H31   
   564    566    598      1    1.0968e+02    3.6208e+02 ;    C14 - C16    - H32   
   564    566    599      1    1.0968e+02    3.6208e+02 ;    C14 - C16    - H33   
   564    566    600      1    1.0968e+02    3.6208e+02 ;    C14 - C16    - H34   
   565    564    566      1    1.1263e+02    5.0099e+02 ;    C15 - C14    - C16   
   565    564    594      1    1.0968e+02    3.6208e+02 ;    C15 - C14    - H28   
   566    564    594      1    1.0968e+02    3.6208e+02 ;    C16 - C14    - H28   
   567    551    568      1    1.0773e+02    2.9957e+02 ;     H1 - C1     - H2    
   567    551    569      1    1.0773e+02    2.9957e+02 ;     H1 - C1     - H3    
   568    551    569      1    1.0773e+02    2.9957e+02 ;     H2 - C1     - H3    
   571    553    572      1    1.0773e+02    2.9957e+02 ;     H5 - C3     - H6    
   571    553    573      1    1.0773e+02    2.9957e+02 ;     H5 - C3     - H7    
   572    553    573      1    1.0773e+02    2.9957e+02 ;     H6 - C3     - H7    
   574    554    575      1    1.0773e+02    2.9957e+02 ;     H8 - C4     - H9    
   577    556    578      1    1.0773e+02    2.9957e+02 ;    H11 - C6     - H12   
   577    556    579      1    1.0773e+02    2.9957e+02 ;    H11 - C6     - H13   
   578    556    579      1    1.0773e+02    2.9957e+02 ;    H12 - C6     - H13   
   580    557    581      1    1.0773e+02    2.9957e+02 ;    H14 - C7     - H15   
   583    559    584      1    1.0773e+02    2.9957e+02 ;    H17 - C9     - H18   
   583    559    585      1    1.0773e+02    2.9957e+02 ;    H17 - C9     - H19   
   584    559    585      1    1.0773e+02    2.9957e+02 ;    H18 - C9     - H19   
   586    560    587      1    1.0773e+02    2.9957e+02 ;    H20 - C10    - H21   
   589    562    590      1    1.0773e+02    2.9957e+02 ;    H23 - C12    - H24   
   589    562    591      1    1.0773e+02    2.9957e+02 ;    H23 - C12    - H25   
   590    562    591      1    1.0773e+02    2.9957e+02 ;    H24 - C12    - H25   
   592    563    593      1    1.0773e+02    2.9957e+02 ;    H26 - C13    - H27   
   595    565    596      1    1.0773e+02    2.9957e+02 ;    H29 - C15    - H30   
   595    565    597      1    1.0773e+02    2.9957e+02 ;    H29 - C15    - H31   
   596    565    597      1    1.0773e+02    2.9957e+02 ;    H30 - C15    - H31   
   598    566    599      1    1.0773e+02    2.9957e+02 ;    H32 - C16    - H33   
   598    566    600      1    1.0773e+02    2.9957e+02 ;    H32 - C16    - H34   
   599    566    600      1    1.0773e+02    2.9957e+02 ;    H33 - C16    - H34   
   601    602    603      1    1.1263e+02    5.0099e+02 ;     C1 - C2     - C3    
   601    602    604      1    1.1263e+02    5.0099e+02 ;     C1 - C2     - C4    
   601    602    620      1    1.0968e+02    3.6208e+02 ;     C1 - C2     - H4    
   602    601    617      1    1.0968e+02    3.6208e+02 ;     C2 - C1     - H1    
   602    601    618      1    1.0968e+02    3.6208e+02 ;     C2 - C1     - H2    
   602    601    619      1    1.0968e+02    3.6208e+02 ;     C2 - C1     - H3    
   602    603    621      1    1.0968e+02    3.6208e+02 ;     C2 - C3     - H5    
   602    603    622      1    1.0968e+02    3.6208e+02 ;     C2 - C3     - H6    
   602    603    623      1    1.0968e+02    3.6208e+02 ;     C2 - C3     - H7    
   602    604    605      1    1.1263e+02    5.0099e+02 ;     C2 - C4     - C5    
   602    604    624      1    1.0968e+02    3.6208e+02 ;     C2 - C4     - H8    
   602    604    625      1    1.0968e+02    3.6208e+02 ;     C2 - C4     - H9    
   603    602    604      1    1.1263e+02    5.0099e+02 ;     C3 - C2     - C4    
   603    602    620      1    1.0968e+02    3.6208e+02 ;     C3 - C2     - H4    
   604    602    620      1    1.0968e+02    3.6208e+02 ;     C4 - C2     - H4    
   604    605    606      1    1.1263e+02    5.0099e+02 ;     C4 - C5     - C6    
   604    605    607      1    1.1263e+02    5.0099e+02 ;     C4 - C5     - C7    
   604    605    626      1    1.0968e+02    3.6208e+02 ;     C4 - C5     - H10   
   605    604    624      1    1.0968e+02    3.6208e+02 ;     C5 - C4     - H8    
   605    604    625      1    1.0968e+02    3.6208e+02 ;     C5 - C4     - H9    
   605    606    627      1    1.0968e+02    3.6208e+02 ;     C5 - C6     - H11   
   605    606    628      1    1.0968e+02    3.6208e+02 ;     C5 - C6     - H12   
   605    606    629      1    1.0968e+02    3.6208e+02 ;     C5 - C6     - H13   
   605    607    608      1    1.1263e+02    5.0099e+02 ;     C5 - C7     - C8    
   605    607    630      1    1.0968e+02    3.6208e+02 ;     C5 - C7     - H14   
   605    607    631      1    1.0968e+02    3.6208e+02 ;     C5 - C7     - H15   
   606    605    607      1    1.1263e+02    5.0099e+02 ;     C6 - C5     - C7    
   606    605    626      1    1.0968e+02    3.6208e+02 ;     C6 - C5     - H10   
   607    605    626      1    1.0968e+02    3.6208e+02 ;     C7 - C5     - H10   
   607    608    609      1    1.1263e+02    5.0099e+02 ;     C7 - C8     - C9    
   607    608    610      1    1.1263e+02    5.0099e+02 ;     C7 - C8     - C10   
   607    608    632      1    1.0968e+02    3.6208e+02 ;     C7 - C8     - H16   
   608    607    630      1    1.0968e+02    3.6208e+02 ;     C8 - C7     - H14   
   608    607    631      1    1.0968e+02    3.6208e+02 ;     C8 - C7     - H15   
   608    609    633      1    1.0968e+02    3.6208e+02 ;     C8 - C9     - H17   
   608    609    634      1    1.0968e+02    3.6208e+02 ;     C8 - C9     - H18   
   608    609    635      1    1.0968e+02    3.6208e+02 ;     C8 - C9     - H19   
   608    610    611      1    1.1263e+02    5.0099e+02 ;     C8 - C10    - C11   
   608    610    636      1    1.0968e+02    3.6208e+02 ;     C8 - C10    - H20   
   608    610    637      1    1.0968e+02    3.6208e+02 ;     C8 - C10    - H21   
   609    608    610      1    1.1263e+02    5.0099e+02 ;     C9 - C8     - C10   
   609    608    632      1    1.0968e+02    3.6208e+02 ;     C9 - C8     - H16   
   610    608    632      1    1.0968e+02    3.6208e+02 ;    C10 - C8     - H16   
   610    611    612      1    1.1263e+02    5.0099e+02 ;    C10 - C11    - C12   
   610    611    613      1    1.1263e+02    5.0099e+02 ;    C10 - C11    - C13   
   610    611    638      1    1.0968e+02    3.6208e+02 ;    C10 - C11    - H22   
   611    610    636      1    1.0968e+02    3.6208e+02 ;    C11 - C10    - H20   
   611    610    637      1    1.0968e+02    3.6208e+02 ;    C11 - C10    - H21   
   611    612    639      1    1.0968e+02    3.6208e+02 ;    C11 - C12    - H23   
   611    612    640      1    1.0968e+02    3.6208e+02 ;    C11 - C12    - H24   
   611    612    641      1    1.0968e+02    3.6208e+02 ;    C11 - C12    - H25   
   611    613    614      1    1.1263e+02    5.0099e+02 ;    C11 - C13    - C14   
   611    613    642      1    1.0968e+02    3.6208e+02 ;    C11 - C13    - H26   
   611    613    643      1    1.0968e+02    3.6208e+02 ;    C11 - C13    - H27   
   612    611    613      1    1.1263e+02    5.0099e+02 ;    C12 - C11    - C13   
   612    611    638      1    1.0968e+02    3.6208e+02 ;    C12 - C11    - H22   
   613    611    638      1    1.0968e+02    3.6208e+02 ;    C13 - C11    - H22   
   613    614    615      1    1.1263e+02    5.0099e+02 ;    C13 - C14    - C15   
   613    614    616      1    1.1263e+02    5.0099e+02 ;    C13 - C14    - C16   
   613    614    644      1    1.0968e+02    3.6208e+02 ;    C13 - C14    - H28   
   614    613    642      1    1.0968e+02    3.6208e+02 ;    C14 - C13    - H26   
   614    613    643      1    1.0968e+02    3.6208e+02 ;    C14 - C13    - H27   
   614    615    645      1    1.0968e+02    3.6208e+02 ;    C14 - C15    - H29   
   614    615    646      1    1.0968e+02    3.6208e+02 ;    C14 - C15    - H30   
   614    615    647      1    1.0968e+02    3.6208e+02 ;    C14 - C15    - H31   
   614    616    648      1    1.0968e+02    3.6208e+02 ;    C14 - C16    - H32   
   614    616    649      1    1.0968e+02    3.6208e+02 ;    C14 - C16    - H33   
   614    616    650      1    1.0968e+02    3.6208e+02 ;    C14 - C16    - H34   
   615    614    616      1    1.1263e+02    5.0099e+02 ;    C15 - C14    - C16   
   615    614    644      1    1.0968e+02    3.6208e+02 ;    C15 - C14    - H28   
   616    614    644      1    1.0968e+02    3.6208e+02 ;    C16 - C14    - H28   
   617    601    618      1    1.0773e+02    2.9957e+02 ;     H1 - C1     - H2    
   617    601    619      1    1.0773e+02    2.9957e+02 ;     H1 - C1     - H3    
   618    601    619      1    1.0773e+02    2.9957e+02 ;     H2 - C1     - H3    
   621    603    622      1    1.0773e+02    2.9957e+02 ;     H5 - C3     - H6    
   621    603    623      1    1.0773e+02    2.9957e+02 ;     H5 - C3     - H7    
   622    603    623      1    1.0773e+02    2.9957e+02 ;     H6 - C3     - H7    
   624    604    625      1    1.0773e+02    2.9957e+02 ;     H8 - C4     - H9    
   627    606    628      1    1.0773e+02    2.9957e+02 ;    H11 - C6     - H12   
   627    606    629      1    1.0773e+02    2.9957e+02 ;    H11 - C6     - H13   
   628    606    629      1    1.0773e+02    2.9957e+02 ;    H12 - C6     - H13   
   630    607    631      1    1.0773e+02    2.9957e+02 ;    H14 - C7     - H15   
   633    609    634      1    1.0773e+02    2.9957e+02 ;    H17 - C9     - H18   
   633    609    635      1    1.0773e+02    2.9957e+02 ;    H17 - C9     - H19   
   634    609    635      1    1.0773e+02    2.9957e+02 ;    H18 - C9     - H19   
   636    610    637      1    1.0773e+02    2.9957e+02 ;    H20 - C10    - H21   
   639    612    640      1    1.0773e+02    2.9957e+02 ;    H23 - C12    - H24   
   639    612    641      1    1.0773e+02    2.9957e+02 ;    H23 - C12    - H25   
   640    612    641      1    1.0773e+02    2.9957e+02 ;    H24 - C12    - H25   
   642    613    643      1    1.0773e+02    2.9957e+02 ;    H26 - C13    - H27   
   645    615    646      1    1.0773e+02    2.9957e+02 ;    H29 - C15    - H30   
   645    615    647      1    1.0773e+02    2.9957e+02 ;    H29 - C15    - H31   
   646    615    647      1    1.0773e+02    2.9957e+02 ;    H30 - C15    - H31   
   648    616    649      1    1.0773e+02    2.9957e+02 ;    H32 - C16    - H33   
   648    616    650      1    1.0773e+02    2.9957e+02 ;    H32 - C16    - H34   
   649    616    650      1    1.0773e+02    2.9957e+02 ;    H33 - C16    - H34   
   651    652    653      1    1.1263e+02    5.0099e+02 ;     C1 - C2     - C3    
   651    652    654      1    1.1263e+02    5.0099e+02 ;     C1 - C2     - C4    
   651    652    670      1    1.0968e+02    3.6208e+02 ;     C1 - C2     - H4    
   652    651    667      1    1.0968e+02    3.6208e+02 ;     C2 - C1     - H1    
   652    651    668      1    1.0968e+02    3.6208e+02 ;     C2 - C1     - H2    
   652    651    669      1    1.0968e+02    3.6208e+02 ;     C2 - C1     - H3    
   652    653    671      1    1.0968e+02    3.6208e+02 ;     C2 - C3     - H5    
   652    653    672      1    1.0968e+02    3.6208e+02 ;     C2 - C3     - H6    
   652    653    673      1    1.0968e+02    3.6208e+02 ;     C2 - C3     - H7    
   652    654    655      1    1.1263e+02    5.0099e+02 ;     C2 - C4     - C5    
   652    654    674      1    1.0968e+02    3.6208e+02 ;     C2 - C4     - H8    
   652    654    675      1    1.0968e+02    3.6208e+02 ;     C2 - C4     - H9    
   653    652    654      1    1.1263e+02    5.0099e+02 ;     C3 - C2     - C4    
   653    652    670      1    1.0968e+02    3.6208e+02 ;     C3 - C2     - H4    
   654    652    670      1    1.0968e+02    3.6208e+02 ;     C4 - C2     - H4    
   654    655    656      1    1.1263e+02    5.0099e+02 ;     C4 - C5     - C6    
   654    655    657      1    1.1263e+02    5.0099e+02 ;     C4 - C5     - C7    
   654    655    676      1    1.0968e+02    3.6208e+02 ;     C4 - C5     - H10   
   655    654    674      1    1.0968e+02    3.6208e+02 ;     C5 - C4     - H8    
   655    654    675      1    1.0968e+02    3.6208e+02 ;     C5 - C4     - H9    
   655    656    677      1    1.0968e+02    3.6208e+02 ;     C5 - C6     - H11   
   655    656    678      1    1.0968e+02    3.6208e+02 ;     C5 - C6     - H12   
   655    656    679      1    1.0968e+02    3.6208e+02 ;     C5 - C6     - H13   
   655    657    658      1    1.1263e+02    5.0099e+02 ;     C5 - C7     - C8    
   655    657    680      1    1.0968e+02    3.6208e+02 ;     C5 - C7     - H14   
   655    657    681      1    1.0968e+02    3.6208e+02 ;     C5 - C7     - H15   
   656    655    657      1    1.1263e+02    5.0099e+02 ;     C6 - C5     - C7    
   656    655    676      1    1.0968e+02    3.6208e+02 ;     C6 - C5     - H10   
   657    655    676      1    1.0968e+02    3.6208e+02 ;     C7 - C5     - H10   
   657    658    659      1    1.1263e+02    5.0099e+02 ;     C7 - C8     - C9    
   657    658    660      1    1.1263e+02    5.0099e+02 ;     C7 - C8     - C10   
   657    658    682      1    1.0968e+02    3.6208e+02 ;     C7 - C8     - H16   
   658    657    680      1    1.0968e+02    3.6208e+02 ;     C8 - C7     - H14   
   658    657    681      1    1.0968e+02    3.6208e+02 ;     C8 - C7     - H15   
   658    659    683      1    1.0968e+02    3.6208e+02 ;     C8 - C9     - H17   
   658    659    684      1    1.0968e+02    3.6208e+02 ;     C8 - C9     - H18   
   658    659    685      1    1.0968e+02    3.6208e+02 ;     C8 - C9     - H19   
   658    660    661      1    1.1263e+02    5.0099e+02 ;     C8 - C10    - C11   
   658    660    686      1    1.0968e+02    3.6208e+02 ;     C8 - C10    - H20   
   658    660    687      1    1.0968e+02    3.6208e+02 ;     C8 - C10    - H21   
   659    658    660      1    1.1263e+02    5.0099e+02 ;     C9 - C8     - C10   
   659    658    682      1    1.0968e+02    3.6208e+02 ;     C9 - C8     - H16   
   660    658    682      1    1.0968e+02    3.6208e+02 ;    C10 - C8     - H16   
   660    661    662      1    1.1263e+02    5.0099e+02 ;    C10 - C11    - C12   
   660    661    663      1    1.1263e+02    5.0099e+02 ;    C10 - C11    - C13   
   660    661    688      1    1.0968e+02    3.6208e+02 ;    C10 - C11    - H22   
   661    660    686      1    1.0968e+02    3.6208e+02 ;    C11 - C10    - H20   
   661    660    687      1    1.0968e+02    3.6208e+02 ;    C11 - C10    - H21   
   661    662    689      1    1.0968e+02    3.6208e+02 ;    C11 - C12    - H23   
   661    662    690      1    1.0968e+02    3.6208e+02 ;    C11 - C12    - H24   
   661    662    691      1    1.0968e+02    3.6208e+02 ;    C11 - C12    - H25   
   661    663    664      1    1.1263e+02    5.0099e+02 ;    C11 - C13    - C14   
   661    663    692      1    1.0968e+02    3.6208e+02 ;    C11 - C13    - H26   
   661    663    693      1    1.0968e+02    3.6208e+02 ;    C11 - C13    - H27   
   662    661    663      1    1.1263e+02    5.0099e+02 ;    C12 - C11    - C13   
   662    661    688      1    1.0968e+02    3.6208e+02 ;    C12 - C11    - H22   
   663    661    688      1    1.0968e+02    3.6208e+02 ;    C13 - C11    - H22   
   663    664    665      1    1.1263e+02    5.0099e+02 ;    C13 - C14    - C15   
   663    664    666      1    1.1263e+02    5.0099e+02 ;    C13 - C14    - C16   
   663    664    694      1    1.0968e+02    3.6208e+02 ;    C13 - C14    - H28   
   664    663    692      1    1.0968e+02    3.6208e+02 ;    C14 - C13    - H26   
   664    663    693      1    1.0968e+02    3.6208e+02 ;    C14 - C13    - H27   
   664    665    695      1    1.0968e+02    3.6208e+02 ;    C14 - C15    - H29   
   664    665    696      1    1.0968e+02    3.6208e+02 ;    C14 - C15    - H30   
   664    665    697      1    1.0968e+02    3.6208e+02 ;    C14 - C15    - H31   
   664    666    698      1    1.0968e+02    3.6208e+02 ;    C14 - C16    - H32   
   664    666    699      1    1.0968e+02    3.6208e+02 ;    C14 - C16    - H33   
   664    666    700      1    1.0968e+02    3.6208e+02 ;    C14 - C16    - H34   
   665    664    666      1    1.1263e+02    5.0099e+02 ;    C15 - C14    - C16   
   665    664    694      1    1.0968e+02    3.6208e+02 ;    C15 - C14    - H28   
   666    664    694      1    1.0968e+02    3.6208e+02 ;    C16 - C14    - H28   
   667    651    668      1    1.0773e+02    2.9957e+02 ;     H1 - C1     - H2    
   667    651    669      1    1.0773e+02    2.9957e+02 ;     H1 - C1     - H3    
   668    651    669      1    1.0773e+02    2.9957e+02 ;     H2 - C1     - H3    
   671    653    672      1    1.0773e+02    2.9957e+02 ;     H5 - C3     - H6    
   671    653    673      1    1.0773e+02    2.9957e+02 ;     H5 - C3     - H7    
   672    653    673      1    1.0773e+02    2.9957e+02 ;     H6 - C3     - H7    
   674    654    675      1    1.0773e+02    2.9957e+02 ;     H8 - C4     - H9    
   677    656    678      1    1.0773e+02    2.9957e+02 ;    H11 - C6     - H12   
   677    656    679      1    1.0773e+02    2.9957e+02 ;    H11 - C6     - H13   
   678    656    679      1    1.0773e+02    2.9957e+02 ;    H12 - C6     - H13   
   680    657    681      1    1.0773e+02    2.9957e+02 ;    H14 - C7     - H15   
   683    659    684      1    1.0773e+02    2.9957e+02 ;    H17 - C9     - H18   
   683    659    685      1    1.0773e+02    2.9957e+02 ;    H17 - C9     - H19   
   684    659    685      1    1.0773e+02    2.9957e+02 ;    H18 - C9     - H19   
   686    660    687      1    1.0773e+02    2.9957e+02 ;    H20 - C10    - H21   
   689    662    690      1    1.0773e+02    2.9957e+02 ;    H23 - C12    - H24   
   689    662    691      1    1.0773e+02    2.9957e+02 ;    H23 - C12    - H25   
   690    662    691      1    1.0773e+02    2.9957e+02 ;    H24 - C12    - H25   
   692    663    693      1    1.0773e+02    2.9957e+02 ;    H26 - C13    - H27   
   695    665    696      1    1.0773e+02    2.9957e+02 ;    H29 - C15    - H30   
   695    665    697      1    1.0773e+02    2.9957e+02 ;    H29 - C15    - H31   
   696    665    697      1    1.0773e+02    2.9957e+02 ;    H30 - C15    - H31   
   698    666    699      1    1.0773e+02    2.9957e+02 ;    H32 - C16    - H33   
   698    666    700      1    1.0773e+02    2.9957e+02 ;    H32 - C16    - H34   
   699    666    700      1    1.0773e+02    2.9957e+02 ;    H33 - C16    - H34   
   701    702    703      1    1.1263e+02    5.0099e+02 ;     C1 - C2     - C3    
   701    702    704      1    1.1263e+02    5.0099e+02 ;     C1 - C2     - C4    
   701    702    720      1    1.0968e+02    3.6208e+02 ;     C1 - C2     - H4    
   702    701    717      1    1.0968e+02    3.6208e+02 ;     C2 - C1     - H1    
   702    701    718      1    1.0968e+02    3.6208e+02 ;     C2 - C1     - H2    
   702    701    719      1    1.0968e+02    3.6208e+02 ;     C2 - C1     - H3    
   702    703    721      1    1.0968e+02    3.6208e+02 ;     C2 - C3     - H5    
   702    703    722      1    1.0968e+02    3.6208e+02 ;     C2 - C3     - H6    
   702    703    723      1    1.0968e+02    3.6208e+02 ;     C2 - C3     - H7    
   702    704    705      1    1.1263e+02    5.0099e+02 ;     C2 - C4     - C5    
   702    704    724      1    1.0968e+02    3.6208e+02 ;     C2 - C4     - H8    
   702    704    725      1    1.0968e+02    3.6208e+02 ;     C2 - C4     - H9    
   703    702    704      1    1.1263e+02    5.0099e+02 ;     C3 - C2     - C4    
   703    702    720      1    1.0968e+02    3.6208e+02 ;     C3 - C2     - H4    
   704    702    720      1    1.0968e+02    3.6208e+02 ;     C4 - C2     - H4    
   704    705    706      1    1.1263e+02    5.0099e+02 ;     C4 - C5     - C6    
   704    705    707      1    1.1263e+02    5.0099e+02 ;     C4 - C5     - C7    
   704    705    726      1    1.0968e+02    3.6208e+02 ;     C4 - C5     - H10   
   705    704    724      1    1.0968e+02    3.6208e+02 ;     C5 - C4     - H8    
   705    704    725      1    1.0968e+02    3.6208e+02 ;     C5 - C4     - H9    
   705    706    727      1    1.0968e+02    3.6208e+02 ;     C5 - C6     - H11   
   705    706    728      1    1.0968e+02    3.6208e+02 ;     C5 - C6     - H12   
   705    706    729      1    1.0968e+02    3.6208e+02 ;     C5 - C6     - H13   
   705    707    708      1    1.1263e+02    5.0099e+02 ;     C5 - C7     - C8    
   705    707    730      1    1.0968e+02    3.6208e+02 ;     C5 - C7     - H14   
   705    707    731      1    1.0968e+02    3.6208e+02 ;     C5 - C7     - H15   
   706    705    707      1    1.1263e+02    5.0099e+02 ;     C6 - C5     - C7    
   706    705    726      1    1.0968e+02    3.6208e+02 ;     C6 - C5     - H10   
   707    705    726      1    1.0968e+02    3.6208e+02 ;     C7 - C5     - H10   
   707    708    709      1    1.1263e+02    5.0099e+02 ;     C7 - C8     - C9    
   707    708    710      1    1.1263e+02    5.0099e+02 ;     C7 - C8     - C10   
   707    708    732      1    1.0968e+02    3.6208e+02 ;     C7 - C8     - H16   
   708    707    730      1    1.0968e+02    3.6208e+02 ;     C8 - C7     - H14   
   708    707    731      1    1.0968e+02    3.6208e+02 ;     C8 - C7     - H15   
   708    709    733      1    1.0968e+02    3.6208e+02 ;     C8 - C9     - H17   
   708    709    734      1    1.0968e+02    3.6208e+02 ;     C8 - C9     - H18   
   708    709    735      1    1.0968e+02    3.6208e+02 ;     C8 - C9     - H19   
   708    710    711      1    1.1263e+02    5.0099e+02 ;     C8 - C10    - C11   
   708    710    736      1    1.0968e+02    3.6208e+02 ;     C8 - C10    - H20   
   708    710    737      1    1.0968e+02    3.6208e+02 ;     C8 - C10    - H21   
   709    708    710      1    1.1263e+02    5.0099e+02 ;     C9 - C8     - C10   
   709    708    732      1    1.0968e+02    3.6208e+02 ;     C9 - C8     - H16   
   710    708    732      1    1.0968e+02    3.6208e+02 ;    C10 - C8     - H16   
   710    711    712      1    1.1263e+02    5.0099e+02 ;    C10 - C11    - C12   
   710    711    713      1    1.1263e+02    5.0099e+02 ;    C10 - C11    - C13   
   710    711    738      1    1.0968e+02    3.6208e+02 ;    C10 - C11    - H22   
   711    710    736      1    1.0968e+02    3.6208e+02 ;    C11 - C10    - H20   
   711    710    737      1    1.0968e+02    3.6208e+02 ;    C11 - C10    - H21   
   711    712    739      1    1.0968e+02    3.6208e+02 ;    C11 - C12    - H23   
   711    712    740      1    1.0968e+02    3.6208e+02 ;    C11 - C12    - H24   
   711    712    741      1    1.0968e+02    3.6208e+02 ;    C11 - C12    - H25   
   711    713    714      1    1.1263e+02    5.0099e+02 ;    C11 - C13    - C14   
   711    713    742      1    1.0968e+02    3.6208e+02 ;    C11 - C13    - H26   
   711    713    743      1    1.0968e+02    3.6208e+02 ;    C11 - C13    - H27   
   712    711    713      1    1.1263e+02    5.0099e+02 ;    C12 - C11    - C13   
   712    711    738      1    1.0968e+02    3.6208e+02 ;    C12 - C11    - H22   
   713    711    738      1    1.0968e+02    3.6208e+02 ;    C13 - C11    - H22   
   713    714    715      1    1.1263e+02    5.0099e+02 ;    C13 - C14    - C15   
   713    714    716      1    1.1263e+02    5.0099e+02 ;    C13 - C14    - C16   
   713    714    744      1    1.0968e+02    3.6208e+02 ;    C13 - C14    - H28   
   714    713    742      1    1.0968e+02    3.6208e+02 ;    C14 - C13    - H26   
   714    713    743      1    1.0968e+02    3.6208e+02 ;    C14 - C13    - H27   
   714    715    745      1    1.0968e+02    3.6208e+02 ;    C14 - C15    - H29   
   714    715    746      1    1.0968e+02    3.6208e+02 ;    C14 - C15    - H30   
   714    715    747      1    1.0968e+02    3.6208e+02 ;    C14 - C15    - H31   
   714    716    748      1    1.0968e+02    3.6208e+02 ;    C14 - C16    - H32   
   714    716    749      1    1.0968e+02    3.6208e+02 ;    C14 - C16    - H33   
   714    716    750      1    1.0968e+02    3.6208e+02 ;    C14 - C16    - H34   
   715    714    716      1    1.1263e+02    5.0099e+02 ;    C15 - C14    - C16   
   715    714    744      1    1.0968e+02    3.6208e+02 ;    C15 - C14    - H28   
   716    714    744      1    1.0968e+02    3.6208e+02 ;    C16 - C14    - H28   
   717    701    718      1    1.0773e+02    2.9957e+02 ;     H1 - C1     - H2    
   717    701    719      1    1.0773e+02    2.9957e+02 ;     H1 - C1     - H3    
   718    701    719      1    1.0773e+02    2.9957e+02 ;     H2 - C1     - H3    
   721    703    722      1    1.0773e+02    2.9957e+02 ;     H5 - C3     - H6    
   721    703    723      1    1.0773e+02    2.9957e+02 ;     H5 - C3     - H7    
   722    703    723      1    1.0773e+02    2.9957e+02 ;     H6 - C3     - H7    
   724    704    725      1    1.0773e+02    2.9957e+02 ;     H8 - C4     - H9    
   727    706    728      1    1.0773e+02    2.9957e+02 ;    H11 - C6     - H12   
   727    706    729      1    1.0773e+02    2.9957e+02 ;    H11 - C6     - H13   
   728    706    729      1    1.0773e+02    2.9957e+02 ;    H12 - C6     - H13   
   730    707    731      1    1.0773e+02    2.9957e+02 ;    H14 - C7     - H15   
   733    709    734      1    1.0773e+02    2.9957e+02 ;    H17 - C9     - H18   
   733    709    735      1    1.0773e+02    2.9957e+02 ;    H17 - C9     - H19   
   734    709    735      1    1.0773e+02    2.9957e+02 ;    H18 - C9     - H19   
   736    710    737      1    1.0773e+02    2.9957e+02 ;    H20 - C10    - H21   
   739    712    740      1    1.0773e+02    2.9957e+02 ;    H23 - C12    - H24   
   739    712    741      1    1.0773e+02    2.9957e+02 ;    H23 - C12    - H25   
   740    712    741      1    1.0773e+02    2.9957e+02 ;    H24 - C12    - H25   
   742    713    743      1    1.0773e+02    2.9957e+02 ;    H26 - C13    - H27   
   745    715    746      1    1.0773e+02    2.9957e+02 ;    H29 - C15    - H30   
   745    715    747      1    1.0773e+02    2.9957e+02 ;    H29 - C15    - H31   
   746    715    747      1    1.0773e+02    2.9957e+02 ;    H30 - C15    - H31   
   748    716    749      1    1.0773e+02    2.9957e+02 ;    H32 - C16    - H33   
   748    716    750      1    1.0773e+02    2.9957e+02 ;    H32 - C16    - H34   
   749    716    750      1    1.0773e+02    2.9957e+02 ;    H33 - C16    - H34   
   751    752    753      1    1.1263e+02    5.0099e+02 ;     C1 - C2     - C3    
   751    752    754      1    1.1263e+02    5.0099e+02 ;     C1 - C2     - C4    
   751    752    770      1    1.0968e+02    3.6208e+02 ;     C1 - C2     - H4    
   752    751    767      1    1.0968e+02    3.6208e+02 ;     C2 - C1     - H1    
   752    751    768      1    1.0968e+02    3.6208e+02 ;     C2 - C1     - H2    
   752    751    769      1    1.0968e+02    3.6208e+02 ;     C2 - C1     - H3    
   752    753    771      1    1.0968e+02    3.6208e+02 ;     C2 - C3     - H5    
   752    753    772      1    1.0968e+02    3.6208e+02 ;     C2 - C3     - H6    
   752    753    773      1    1.0968e+02    3.6208e+02 ;     C2 - C3     - H7    
   752    754    755      1    1.1263e+02    5.0099e+02 ;     C2 - C4     - C5    
   752    754    774      1    1.0968e+02    3.6208e+02 ;     C2 - C4     - H8    
   752    754    775      1    1.0968e+02    3.6208e+02 ;     C2 - C4     - H9    
   753    752    754      1    1.1263e+02    5.0099e+02 ;     C3 - C2     - C4    
   753    752    770      1    1.0968e+02    3.6208e+02 ;     C3 - C2     - H4    
   754    752    770      1    1.0968e+02    3.6208e+02 ;     C4 - C2     - H4    
   754    755    756      1    1.1263e+02    5.0099e+02 ;     C4 - C5     - C6    
   754    755    757      1    1.1263e+02    5.0099e+02 ;     C4 - C5     - C7    
   754    755    776      1    1.0968e+02    3.6208e+02 ;     C4 - C5     - H10   
   755    754    774      1    1.0968e+02    3.6208e+02 ;     C5 - C4     - H8    
   755    754    775      1    1.0968e+02    3.6208e+02 ;     C5 - C4     - H9    
   755    756    777      1    1.0968e+02    3.6208e+02 ;     C5 - C6     - H11   
   755    756    778      1    1.0968e+02    3.6208e+02 ;     C5 - C6     - H12   
   755    756    779      1    1.0968e+02    3.6208e+02 ;     C5 - C6     - H13   
   755    757    758      1    1.1263e+02    5.0099e+02 ;     C5 - C7     - C8    
   755    757    780      1    1.0968e+02    3.6208e+02 ;     C5 - C7     - H14   
   755    757    781      1    1.0968e+02    3.6208e+02 ;     C5 - C7     - H15   
   756    755    757      1    1.1263e+02    5.0099e+02 ;     C6 - C5     - C7    
   756    755    776      1    1.0968e+02    3.6208e+02 ;     C6 - C5     - H10   
   757    755    776      1    1.0968e+02    3.6208e+02 ;     C7 - C5     - H10   
   757    758    759      1    1.1263e+02    5.0099e+02 ;     C7 - C8     - C9    
   757    758    760      1    1.1263e+02    5.0099e+02 ;     C7 - C8     - C10   
   757    758    782      1    1.0968e+02    3.6208e+02 ;     C7 - C8     - H16   
   758    757    780      1    1.0968e+02    3.6208e+02 ;     C8 - C7     - H14   
   758    757    781      1    1.0968e+02    3.6208e+02 ;     C8 - C7     - H15   
   758    759    783      1    1.0968e+02    3.6208e+02 ;     C8 - C9     - H17   
   758    759    784      1    1.0968e+02    3.6208e+02 ;     C8 - C9     - H18   
   758    759    785      1    1.0968e+02    3.6208e+02 ;     C8 - C9     - H19   
   758    760    761      1    1.1263e+02    5.0099e+02 ;     C8 - C10    - C11   
   758    760    786      1    1.0968e+02    3.6208e+02 ;     C8 - C10    - H20   
   758    760    787      1    1.0968e+02    3.6208e+02 ;     C8 - C10    - H21   
   759    758    760      1    1.1263e+02    5.0099e+02 ;     C9 - C8     - C10   
   759    758    782      1    1.0968e+02    3.6208e+02 ;     C9 - C8     - H16   
   760    758    782      1    1.0968e+02    3.6208e+02 ;    C10 - C8     - H16   
   760    761    762      1    1.1263e+02    5.0099e+02 ;    C10 - C11    - C12   
   760    761    763      1    1.1263e+02    5.0099e+02 ;    C10 - C11    - C13   
   760    761    788      1    1.0968e+02    3.6208e+02 ;    C10 - C11    - H22   
   761    760    786      1    1.0968e+02    3.6208e+02 ;    C11 - C10    - H20   
   761    760    787      1    1.0968e+02    3.6208e+02 ;    C11 - C10    - H21   
   761    762    789      1    1.0968e+02    3.6208e+02 ;    C11 - C12    - H23   
   761    762    790      1    1.0968e+02    3.6208e+02 ;    C11 - C12    - H24   
   761    762    791      1    1.0968e+02    3.6208e+02 ;    C11 - C12    - H25   
   761    763    764      1    1.1263e+02    5.0099e+02 ;    C11 - C13    - C14   
   761    763    792      1    1.0968e+02    3.6208e+02 ;    C11 - C13    - H26   
   761    763    793      1    1.0968e+02    3.6208e+02 ;    C11 - C13    - H27   
   762    761    763      1    1.1263e+02    5.0099e+02 ;    C12 - C11    - C13   
   762    761    788      1    1.0968e+02    3.6208e+02 ;    C12 - C11    - H22   
   763    761    788      1    1.0968e+02    3.6208e+02 ;    C13 - C11    - H22   
   763    764    765      1    1.1263e+02    5.0099e+02 ;    C13 - C14    - C15   
   763    764    766      1    1.1263e+02    5.0099e+02 ;    C13 - C14    - C16   
   763    764    794      1    1.0968e+02    3.6208e+02 ;    C13 - C14    - H28   
   764    763    792      1    1.0968e+02    3.6208e+02 ;    C14 - C13    - H26   
   764    763    793      1    1.0968e+02    3.6208e+02 ;    C14 - C13    - H27   
   764    765    795      1    1.0968e+02    3.6208e+02 ;    C14 - C15    - H29   
   764    765    796      1    1.0968e+02    3.6208e+02 ;    C14 - C15    - H30   
   764    765    797      1    1.0968e+02    3.6208e+02 ;    C14 - C15    - H31   
   764    766    798      1    1.0968e+02    3.6208e+02 ;    C14 - C16    - H32   
   764    766    799      1    1.0968e+02    3.6208e+02 ;    C14 - C16    - H33   
   764    766    800      1    1.0968e+02    3.6208e+02 ;    C14 - C16    - H34   
   765    764    766      1    1.1263e+02    5.0099e+02 ;    C15 - C14    - C16   
   765    764    794      1    1.0968e+02    3.6208e+02 ;    C15 - C14    - H28   
   766    764    794      1    1.0968e+02    3.6208e+02 ;    C16 - C14    - H28   
   767    751    768      1    1.0773e+02    2.9957e+02 ;     H1 - C1     - H2    
   767    751    769      1    1.0773e+02    2.9957e+02 ;     H1 - C1     - H3    
   768    751    769      1    1.0773e+02    2.9957e+02 ;     H2 - C1     - H3    
   771    753    772      1    1.0773e+02    2.9957e+02 ;     H5 - C3     - H6    
   771    753    773      1    1.0773e+02    2.9957e+02 ;     H5 - C3     - H7    
   772    753    773      1    1.0773e+02    2.9957e+02 ;     H6 - C3     - H7    
   774    754    775      1    1.0773e+02    2.9957e+02 ;     H8 - C4     - H9    
   777    756    778      1    1.0773e+02    2.9957e+02 ;    H11 - C6     - H12   
   777    756    779      1    1.0773e+02    2.9957e+02 ;    H11 - C6     - H13   
   778    756    779      1    1.0773e+02    2.9957e+02 ;    H12 - C6     - H13   
   780    757    781      1    1.0773e+02    2.9957e+02 ;    H14 - C7     - H15   
   783    759    784      1    1.0773e+02    2.9957e+02 ;    H17 - C9     - H18   
   783    759    785      1    1.0773e+02    2.9957e+02 ;    H17 - C9     - H19   
   784    759    785      1    1.0773e+02    2.9957e+02 ;    H18 - C9     - H19   
   786    760    787      1    1.0773e+02    2.9957e+02 ;    H20 - C10    - H21   
   789    762    790      1    1.0773e+02    2.9957e+02 ;    H23 - C12    - H24   
   789    762    791      1    1.0773e+02    2.9957e+02 ;    H23 - C12    - H25   
   790    762    791      1    1.0773e+02    2.9957e+02 ;    H24 - C12    - H25   
   792    763    793      1    1.0773e+02    2.9957e+02 ;    H26 - C13    - H27   
   795    765    796      1    1.0773e+02    2.9957e+02 ;    H29 - C15    - H30   
   795    765    797      1    1.0773e+02    2.9957e+02 ;    H29 - C15    - H31   
   796    765    797      1    1.0773e+02    2.9957e+02 ;    H30 - C15    - H31   
   798    766    799      1    1.0773e+02    2.9957e+02 ;    H32 - C16    - H33   
   798    766    800      1    1.0773e+02    2.9957e+02 ;    H32 - C16    - H34   
   799    766    800      1    1.0773e+02    2.9957e+02 ;    H33 - C16    - H34   
   801    802    803      1    1.1263e+02    5.0099e+02 ;     C1 - C2     - C3    
   801    802    804      1    1.1263e+02    5.0099e+02 ;     C1 - C2     - C4    
   801    802    820      1    1.0968e+02    3.6208e+02 ;     C1 - C2     - H4    
   802    801    817      1    1.0968e+02    3.6208e+02 ;     C2 - C1     - H1    
   802    801    818      1    1.0968e+02    3.6208e+02 ;     C2 - C1     - H2    
   802    801    819      1    1.0968e+02    3.6208e+02 ;     C2 - C1     - H3    
   802    803    821      1    1.0968e+02    3.6208e+02 ;     C2 - C3     - H5    
   802    803    822      1    1.0968e+02    3.6208e+02 ;     C2 - C3     - H6    
   802    803    823      1    1.0968e+02    3.6208e+02 ;     C2 - C3     - H7    
   802    804    805      1    1.1263e+02    5.0099e+02 ;     C2 - C4     - C5    
   802    804    824      1    1.0968e+02    3.6208e+02 ;     C2 - C4     - H8    
   802    804    825      1    1.0968e+02    3.6208e+02 ;     C2 - C4     - H9    
   803    802    804      1    1.1263e+02    5.0099e+02 ;     C3 - C2     - C4    
   803    802    820      1    1.0968e+02    3.6208e+02 ;     C3 - C2     - H4    
   804    802    820      1    1.0968e+02    3.6208e+02 ;     C4 - C2     - H4    
   804    805    806      1    1.1263e+02    5.0099e+02 ;     C4 - C5     - C6    
   804    805    807      1    1.1263e+02    5.0099e+02 ;     C4 - C5     - C7    
   804    805    826      1    1.0968e+02    3.6208e+02 ;     C4 - C5     - H10   
   805    804    824      1    1.0968e+02    3.6208e+02 ;     C5 - C4     - H8    
   805    804    825      1    1.0968e+02    3.6208e+02 ;     C5 - C4     - H9    
   805    806    827      1    1.0968e+02    3.6208e+02 ;     C5 - C6     - H11   
   805    806    828      1    1.0968e+02    3.6208e+02 ;     C5 - C6     - H12   
   805    806    829      1    1.0968e+02    3.6208e+02 ;     C5 - C6     - H13   
   805    807    808      1    1.1263e+02    5.0099e+02 ;     C5 - C7     - C8    
   805    807    830      1    1.0968e+02    3.6208e+02 ;     C5 - C7     - H14   
   805    807    831      1    1.0968e+02    3.6208e+02 ;     C5 - C7     - H15   
   806    805    807      1    1.1263e+02    5.0099e+02 ;     C6 - C5     - C7    
   806    805    826      1    1.0968e+02    3.6208e+02 ;     C6 - C5     - H10   
   807    805    826      1    1.0968e+02    3.6208e+02 ;     C7 - C5     - H10   
   807    808    809      1    1.1263e+02    5.0099e+02 ;     C7 - C8     - C9    
   807    808    810      1    1.1263e+02    5.0099e+02 ;     C7 - C8     - C10   
   807    808    832      1    1.0968e+02    3.6208e+02 ;     C7 - C8     - H16   
   808    807    830      1    1.0968e+02    3.6208e+02 ;     C8 - C7     - H14   
   808    807    831      1    1.0968e+02    3.6208e+02 ;     C8 - C7     - H15   
   808    809    833      1    1.0968e+02    3.6208e+02 ;     C8 - C9     - H17   
   808    809    834      1    1.0968e+02    3.6208e+02 ;     C8 - C9     - H18   
   808    809    835      1    1.0968e+02    3.6208e+02 ;     C8 - C9     - H19   
   808    810    811      1    1.1263e+02    5.0099e+02 ;     C8 - C10    - C11   
   808    810    836      1    1.0968e+02    3.6208e+02 ;     C8 - C10    - H20   
   808    810    837      1    1.0968e+02    3.6208e+02 ;     C8 - C10    - H21   
   809    808    810      1    1.1263e+02    5.0099e+02 ;     C9 - C8     - C10   
   809    808    832      1    1.0968e+02    3.6208e+02 ;     C9 - C8     - H16   
   810    808    832      1    1.0968e+02    3.6208e+02 ;    C10 - C8     - H16   
   810    811    812      1    1.1263e+02    5.0099e+02 ;    C10 - C11    - C12   
   810    811    813      1    1.1263e+02    5.0099e+02 ;    C10 - C11    - C13   
   810    811    838      1    1.0968e+02    3.6208e+02 ;    C10 - C11    - H22   
   811    810    836      1    1.0968e+02    3.6208e+02 ;    C11 - C10    - H20   
   811    810    837      1    1.0968e+02    3.6208e+02 ;    C11 - C10    - H21   
   811    812    839      1    1.0968e+02    3.6208e+02 ;    C11 - C12    - H23   
   811    812    840      1    1.0968e+02    3.6208e+02 ;    C11 - C12    - H24   
   811    812    841      1    1.0968e+02    3.6208e+02 ;    C11 - C12    - H25   
   811    813    814      1    1.1263e+02    5.0099e+02 ;    C11 - C13    - C14   
   811    813    842      1    1.0968e+02    3.6208e+02 ;    C11 - C13    - H26   
   811    813    843      1    1.0968e+02    3.6208e+02 ;    C11 - C13    - H27   
   812    811    813      1    1.1263e+02    5.0099e+02 ;    C12 - C11    - C13   
   812    811    838      1    1.0968e+02    3.6208e+02 ;    C12 - C11    - H22   
   813    811    838      1    1.0968e+02    3.6208e+02 ;    C13 - C11    - H22   
   813    814    815      1    1.1263e+02    5.0099e+02 ;    C13 - C14    - C15   
   813    814    816      1    1.1263e+02    5.0099e+02 ;    C13 - C14    - C16   
   813    814    844      1    1.0968e+02    3.6208e+02 ;    C13 - C14    - H28   
   814    813    842      1    1.0968e+02    3.6208e+02 ;    C14 - C13    - H26   
   814    813    843      1    1.0968e+02    3.6208e+02 ;    C14 - C13    - H27   
   814    815    845      1    1.0968e+02    3.6208e+02 ;    C14 - C15    - H29   
   814    815    846      1    1.0968e+02    3.6208e+02 ;    C14 - C15    - H30   
   814    815    847      1    1.0968e+02    3.6208e+02 ;    C14 - C15    - H31   
   814    816    848      1    1.0968e+02    3.6208e+02 ;    C14 - C16    - H32   
   814    816    849      1    1.0968e+02    3.6208e+02 ;    C14 - C16    - H33   
   814    816    850      1    1.0968e+02    3.6208e+02 ;    C14 - C16    - H34   
   815    814    816      1    1.1263e+02    5.0099e+02 ;    C15 - C14    - C16   
   815    814    844      1    1.0968e+02    3.6208e+02 ;    C15 - C14    - H28   
   816    814    844      1    1.0968e+02    3.6208e+02 ;    C16 - C14    - H28   
   817    801    818      1    1.0773e+02    2.9957e+02 ;     H1 - C1     - H2    
   817    801    819      1    1.0773e+02    2.9957e+02 ;     H1 - C1     - H3    
   818    801    819      1    1.0773e+02    2.9957e+02 ;     H2 - C1     - H3    
   821    803    822      1    1.0773e+02    2.9957e+02 ;     H5 - C3     - H6    
   821    803    823      1    1.0773e+02    2.9957e+02 ;     H5 - C3     - H7    
   822    803    823      1    1.0773e+02    2.9957e+02 ;     H6 - C3     - H7    
   824    804    825      1    1.0773e+02    2.9957e+02 ;     H8 - C4     - H9    
   827    806    828      1    1.0773e+02    2.9957e+02 ;    H11 - C6     - H12   
   827    806    829      1    1.0773e+02    2.9957e+02 ;    H11 - C6     - H13   
   828    806    829      1    1.0773e+02    2.9957e+02 ;    H12 - C6     - H13   
   830    807    831      1    1.0773e+02    2.9957e+02 ;    H14 - C7     - H15   
   833    809    834      1    1.0773e+02    2.9957e+02 ;    H17 - C9     - H18   
   833    809    835      1    1.0773e+02    2.9957e+02 ;    H17 - C9     - H19   
   834    809    835      1    1.0773e+02    2.9957e+02 ;    H18 - C9     - H19   
   836    810    837      1    1.0773e+02    2.9957e+02 ;    H20 - C10    - H21   
   839    812    840      1    1.0773e+02    2.9957e+02 ;    H23 - C12    - H24   
   839    812    841      1    1.0773e+02    2.9957e+02 ;    H23 - C12    - H25   
   840    812    841      1    1.0773e+02    2.9957e+02 ;    H24 - C12    - H25   
   842    813    843      1    1.0773e+02    2.9957e+02 ;    H26 - C13    - H27   
   845    815    846      1    1.0773e+02    2.9957e+02 ;    H29 - C15    - H30   
   845    815    847      1    1.0773e+02    2.9957e+02 ;    H29 - C15    - H31   
   846    815    847      1    1.0773e+02    2.9957e+02 ;    H30 - C15    - H31   
   848    816    849      1    1.0773e+02    2.9957e+02 ;    H32 - C16    - H33   
   848    816    850      1    1.0773e+02    2.9957e+02 ;    H32 - C16    - H34   
   849    816    850      1    1.0773e+02    2.9957e+02 ;    H33 - C16    - H34   
   851    852    853      1    1.1263e+02    5.0099e+02 ;     C1 - C2     - C3    
   851    852    854      1    1.1263e+02    5.0099e+02 ;     C1 - C2     - C4    
   851    852    870      1    1.0968e+02    3.6208e+02 ;     C1 - C2     - H4    
   852    851    867      1    1.0968e+02    3.6208e+02 ;     C2 - C1     - H1    
   852    851    868      1    1.0968e+02    3.6208e+02 ;     C2 - C1     - H2    
   852    851    869      1    1.0968e+02    3.6208e+02 ;     C2 - C1     - H3    
   852    853    871      1    1.0968e+02    3.6208e+02 ;     C2 - C3     - H5    
   852    853    872      1    1.0968e+02    3.6208e+02 ;     C2 - C3     - H6    
   852    853    873      1    1.0968e+02    3.6208e+02 ;     C2 - C3     - H7    
   852    854    855      1    1.1263e+02    5.0099e+02 ;     C2 - C4     - C5    
   852    854    874      1    1.0968e+02    3.6208e+02 ;     C2 - C4     - H8    
   852    854    875      1    1.0968e+02    3.6208e+02 ;     C2 - C4     - H9    
   853    852    854      1    1.1263e+02    5.0099e+02 ;     C3 - C2     - C4    
   853    852    870      1    1.0968e+02    3.6208e+02 ;     C3 - C2     - H4    
   854    852    870      1    1.0968e+02    3.6208e+02 ;     C4 - C2     - H4    
   854    855    856      1    1.1263e+02    5.0099e+02 ;     C4 - C5     - C6    
   854    855    857      1    1.1263e+02    5.0099e+02 ;     C4 - C5     - C7    
   854    855    876      1    1.0968e+02    3.6208e+02 ;     C4 - C5     - H10   
   855    854    874      1    1.0968e+02    3.6208e+02 ;     C5 - C4     - H8    
   855    854    875      1    1.0968e+02    3.6208e+02 ;     C5 - C4     - H9    
   855    856    877      1    1.0968e+02    3.6208e+02 ;     C5 - C6     - H11   
   855    856    878      1    1.0968e+02    3.6208e+02 ;     C5 - C6     - H12   
   855    856    879      1    1.0968e+02    3.6208e+02 ;     C5 - C6     - H13   
   855    857    858      1    1.1263e+02    5.0099e+02 ;     C5 - C7     - C8    
   855    857    880      1    1.0968e+02    3.6208e+02 ;     C5 - C7     - H14   
   855    857    881      1    1.0968e+02    3.6208e+02 ;     C5 - C7     - H15   
   856    855    857      1    1.1263e+02    5.0099e+02 ;     C6 - C5     - C7    
   856    855    876      1    1.0968e+02    3.6208e+02 ;     C6 - C5     - H10   
   857    855    876      1    1.0968e+02    3.6208e+02 ;     C7 - C5     - H10   
   857    858    859      1    1.1263e+02    5.0099e+02 ;     C7 - C8     - C9    
   857    858    860      1    1.1263e+02    5.0099e+02 ;     C7 - C8     - C10   
   857    858    882      1    1.0968e+02    3.6208e+02 ;     C7 - C8     - H16   
   858    857    880      1    1.0968e+02    3.6208e+02 ;     C8 - C7     - H14   
   858    857    881      1    1.0968e+02    3.6208e+02 ;     C8 - C7     - H15   
   858    859    883      1    1.0968e+02    3.6208e+02 ;     C8 - C9     - H17   
   858    859    884      1    1.0968e+02    3.6208e+02 ;     C8 - C9     - H18   
   858    859    885      1    1.0968e+02    3.6208e+02 ;     C8 - C9     - H19   
   858    860    861      1    1.1263e+02    5.0099e+02 ;     C8 - C10    - C11   
   858    860    886      1    1.0968e+02    3.6208e+02 ;     C8 - C10    - H20   
   858    860    887      1    1.0968e+02    3.6208e+02 ;     C8 - C10    - H21   
   859    858    860      1    1.1263e+02    5.0099e+02 ;     C9 - C8     - C10   
   859    858    882      1    1.0968e+02    3.6208e+02 ;     C9 - C8     - H16   
   860    858    882      1    1.0968e+02    3.6208e+02 ;    C10 - C8     - H16   
   860    861    862      1    1.1263e+02    5.0099e+02 ;    C10 - C11    - C12   
   860    861    863      1    1.1263e+02    5.0099e+02 ;    C10 - C11    - C13   
   860    861    888      1    1.0968e+02    3.6208e+02 ;    C10 - C11    - H22   
   861    860    886      1    1.0968e+02    3.6208e+02 ;    C11 - C10    - H20   
   861    860    887      1    1.0968e+02    3.6208e+02 ;    C11 - C10    - H21   
   861    862    889      1    1.0968e+02    3.6208e+02 ;    C11 - C12    - H23   
   861    862    890      1    1.0968e+02    3.6208e+02 ;    C11 - C12    - H24   
   861    862    891      1    1.0968e+02    3.6208e+02 ;    C11 - C12    - H25   
   861    863    864      1    1.1263e+02    5.0099e+02 ;    C11 - C13    - C14   
   861    863    892      1    1.0968e+02    3.6208e+02 ;    C11 - C13    - H26   
   861    863    893      1    1.0968e+02    3.6208e+02 ;    C11 - C13    - H27   
   862    861    863      1    1.1263e+02    5.0099e+02 ;    C12 - C11    - C13   
   862    861    888      1    1.0968e+02    3.6208e+02 ;    C12 - C11    - H22   
   863    861    888      1    1.0968e+02    3.6208e+02 ;    C13 - C11    - H22   
   863    864    865      1    1.1263e+02    5.0099e+02 ;    C13 - C14    - C15   
   863    864    866      1    1.1263e+02    5.0099e+02 ;    C13 - C14    - C16   
   863    864    894      1    1.0968e+02    3.6208e+02 ;    C13 - C14    - H28   
   864    863    892      1    1.0968e+02    3.6208e+02 ;    C14 - C13    - H26   
   864    863    893      1    1.0968e+02    3.6208e+02 ;    C14 - C13    - H27   
   864    865    895      1    1.0968e+02    3.6208e+02 ;    C14 - C15    - H29   
   864    865    896      1    1.0968e+02    3.6208e+02 ;    C14 - C15    - H30   
   864    865    897      1    1.0968e+02    3.6208e+02 ;    C14 - C15    - H31   
   864    866    898      1    1.0968e+02    3.6208e+02 ;    C14 - C16    - H32   
   864    866    899      1    1.0968e+02    3.6208e+02 ;    C14 - C16    - H33   
   864    866    900      1    1.0968e+02    3.6208e+02 ;    C14 - C16    - H34   
   865    864    866      1    1.1263e+02    5.0099e+02 ;    C15 - C14    - C16   
   865    864    894      1    1.0968e+02    3.6208e+02 ;    C15 - C14    - H28   
   866    864    894      1    1.0968e+02    3.6208e+02 ;    C16 - C14    - H28   
   867    851    868      1    1.0773e+02    2.9957e+02 ;     H1 - C1     - H2    
   867    851    869      1    1.0773e+02    2.9957e+02 ;     H1 - C1     - H3    
   868    851    869      1    1.0773e+02    2.9957e+02 ;     H2 - C1     - H3    
   871    853    872      1    1.0773e+02    2.9957e+02 ;     H5 - C3     - H6    
   871    853    873      1    1.0773e+02    2.9957e+02 ;     H5 - C3     - H7    
   872    853    873      1    1.0773e+02    2.9957e+02 ;     H6 - C3     - H7    
   874    854    875      1    1.0773e+02    2.9957e+02 ;     H8 - C4     - H9    
   877    856    878      1    1.0773e+02    2.9957e+02 ;    H11 - C6     - H12   
   877    856    879      1    1.0773e+02    2.9957e+02 ;    H11 - C6     - H13   
   878    856    879      1    1.0773e+02    2.9957e+02 ;    H12 - C6     - H13   
   880    857    881      1    1.0773e+02    2.9957e+02 ;    H14 - C7     - H15   
   883    859    884      1    1.0773e+02    2.9957e+02 ;    H17 - C9     - H18   
   883    859    885      1    1.0773e+02    2.9957e+02 ;    H17 - C9     - H19   
   884    859    885      1    1.0773e+02    2.9957e+02 ;    H18 - C9     - H19   
   886    860    887      1    1.0773e+02    2.9957e+02 ;    H20 - C10    - H21   
   889    862    890      1    1.0773e+02    2.9957e+02 ;    H23 - C12    - H24   
   889    862    891      1    1.0773e+02    2.9957e+02 ;    H23 - C12    - H25   
   890    862    891      1    1.0773e+02    2.9957e+02 ;    H24 - C12    - H25   
   892    863    893      1    1.0773e+02    2.9957e+02 ;    H26 - C13    - H27   
   895    865    896      1    1.0773e+02    2.9957e+02 ;    H29 - C15    - H30   
   895    865    897      1    1.0773e+02    2.9957e+02 ;    H29 - C15    - H31   
   896    865    897      1    1.0773e+02    2.9957e+02 ;    H30 - C15    - H31   
   898    866    899      1    1.0773e+02    2.9957e+02 ;    H32 - C16    - H33   
   898    866    900      1    1.0773e+02    2.9957e+02 ;    H32 - C16    - H34   
   899    866    900      1    1.0773e+02    2.9957e+02 ;    H33 - C16    - H34   
   901    902    903      1    1.1263e+02    5.0099e+02 ;     C1 - C2     - C3    
   901    902    904      1    1.1263e+02    5.0099e+02 ;     C1 - C2     - C4    
   901    902    920      1    1.0968e+02    3.6208e+02 ;     C1 - C2     - H4    
   902    901    917      1    1.0968e+02    3.6208e+02 ;     C2 - C1     - H1    
   902    901    918      1    1.0968e+02    3.6208e+02 ;     C2 - C1     - H2    
   902    901    919      1    1.0968e+02    3.6208e+02 ;     C2 - C1     - H3    
   902    903    921      1    1.0968e+02    3.6208e+02 ;     C2 - C3     - H5    
   902    903    922      1    1.0968e+02    3.6208e+02 ;     C2 - C3     - H6    
   902    903    923      1    1.0968e+02    3.6208e+02 ;     C2 - C3     - H7    
   902    904    905      1    1.1263e+02    5.0099e+02 ;     C2 - C4     - C5    
   902    904    924      1    1.0968e+02    3.6208e+02 ;     C2 - C4     - H8    
   902    904    925      1    1.0968e+02    3.6208e+02 ;     C2 - C4     - H9    
   903    902    904      1    1.1263e+02    5.0099e+02 ;     C3 - C2     - C4    
   903    902    920      1    1.0968e+02    3.6208e+02 ;     C3 - C2     - H4    
   904    902    920      1    1.0968e+02    3.6208e+02 ;     C4 - C2     - H4    
   904    905    906      1    1.1263e+02    5.0099e+02 ;     C4 - C5     - C6    
   904    905    907      1    1.1263e+02    5.0099e+02 ;     C4 - C5     - C7    
   904    905    926      1    1.0968e+02    3.6208e+02 ;     C4 - C5     - H10   
   905    904    924      1    1.0968e+02    3.6208e+02 ;     C5 - C4     - H8    
   905    904    925      1    1.0968e+02    3.6208e+02 ;     C5 - C4     - H9    
   905    906    927      1    1.0968e+02    3.6208e+02 ;     C5 - C6     - H11   
   905    906    928      1    1.0968e+02    3.6208e+02 ;     C5 - C6     - H12   
   905    906    929      1    1.0968e+02    3.6208e+02 ;     C5 - C6     - H13   
   905    907    908      1    1.1263e+02    5.0099e+02 ;     C5 - C7     - C8    
   905    907    930      1    1.0968e+02    3.6208e+02 ;     C5 - C7     - H14   
   905    907    931      1    1.0968e+02    3.6208e+02 ;     C5 - C7     - H15   
   906    905    907      1    1.1263e+02    5.0099e+02 ;     C6 - C5     - C7    
   906    905    926      1    1.0968e+02    3.6208e+02 ;     C6 - C5     - H10   
   907    905    926      1    1.0968e+02    3.6208e+02 ;     C7 - C5     - H10   
   907    908    909      1    1.1263e+02    5.0099e+02 ;     C7 - C8     - C9    
   907    908    910      1    1.1263e+02    5.0099e+02 ;     C7 - C8     - C10   
   907    908    932      1    1.0968e+02    3.6208e+02 ;     C7 - C8     - H16   
   908    907    930      1    1.0968e+02    3.6208e+02 ;     C8 - C7     - H14   
   908    907    931      1    1.0968e+02    3.6208e+02 ;     C8 - C7     - H15   
   908    909    933      1    1.0968e+02    3.6208e+02 ;     C8 - C9     - H17   
   908    909    934      1    1.0968e+02    3.6208e+02 ;     C8 - C9     - H18   
   908    909    935      1    1.0968e+02    3.6208e+02 ;     C8 - C9     - H19   
   908    910    911      1    1.1263e+02    5.0099e+02 ;     C8 - C10    - C11   
   908    910    936      1    1.0968e+02    3.6208e+02 ;     C8 - C10    - H20   
   908    910    937      1    1.0968e+02    3.6208e+02 ;     C8 - C10    - H21   
   909    908    910      1    1.1263e+02    5.0099e+02 ;     C9 - C8     - C10   
   909    908    932      1    1.0968e+02    3.6208e+02 ;     C9 - C8     - H16   
   910    908    932      1    1.0968e+02    3.6208e+02 ;    C10 - C8     - H16   
   910    911    912      1    1.1263e+02    5.0099e+02 ;    C10 - C11    - C12   
   910    911    913      1    1.1263e+02    5.0099e+02 ;    C10 - C11    - C13   
   910    911    938      1    1.0968e+02    3.6208e+02 ;    C10 - C11    - H22   
   911    910    936      1    1.0968e+02    3.6208e+02 ;    C11 - C10    - H20   
   911    910    937      1    1.0968e+02    3.6208e+02 ;    C11 - C10    - H21   
   911    912    939      1    1.0968e+02    3.6208e+02 ;    C11 - C12    - H23   
   911    912    940      1    1.0968e+02    3.6208e+02 ;    C11 - C12    - H24   
   911    912    941      1    1.0968e+02    3.6208e+02 ;    C11 - C12    - H25   
   911    913    914      1    1.1263e+02    5.0099e+02 ;    C11 - C13    - C14   
   911    913    942      1    1.0968e+02    3.6208e+02 ;    C11 - C13    - H26   
   911    913    943      1    1.0968e+02    3.6208e+02 ;    C11 - C13    - H27   
   912    911    913      1    1.1263e+02    5.0099e+02 ;    C12 - C11    - C13   
   912    911    938      1    1.0968e+02    3.6208e+02 ;    C12 - C11    - H22   
   913    911    938      1    1.0968e+02    3.6208e+02 ;    C13 - C11    - H22   
   913    914    915      1    1.1263e+02    5.0099e+02 ;    C13 - C14    - C15   
   913    914    916      1    1.1263e+02    5.0099e+02 ;    C13 - C14    - C16   
   913    914    944      1    1.0968e+02    3.6208e+02 ;    C13 - C14    - H28   
   914    913    942      1    1.0968e+02    3.6208e+02 ;    C14 - C13    - H26   
   914    913    943      1    1.0968e+02    3.6208e+02 ;    C14 - C13    - H27   
   914    915    945      1    1.0968e+02    3.6208e+02 ;    C14 - C15    - H29   
   914    915    946      1    1.0968e+02    3.6208e+02 ;    C14 - C15    - H30   
   914    915    947      1    1.0968e+02    3.6208e+02 ;    C14 - C15    - H31   
   914    916    948      1    1.0968e+02    3.6208e+02 ;    C14 - C16    - H32   
   914    916    949      1    1.0968e+02    3.6208e+02 ;    C14 - C16    - H33   
   914    916    950      1    1.0968e+02    3.6208e+02 ;    C14 - C16    - H34   
   915    914    916      1    1.1263e+02    5.0099e+02 ;    C15 - C14    - C16   
   915    914    944      1    1.0968e+02    3.6208e+02 ;    C15 - C14    - H28   
   916    914    944      1    1.0968e+02    3.6208e+02 ;    C16 - C14    - H28   
   917    901    918      1    1.0773e+02    2.9957e+02 ;     H1 - C1     - H2    
   917    901    919      1    1.0773e+02    2.9957e+02 ;     H1 - C1     - H3    
   918    901    919      1    1.0773e+02    2.9957e+02 ;     H2 - C1     - H3    
   921    903    922      1    1.0773e+02    2.9957e+02 ;     H5 - C3     - H6    
   921    903    923      1    1.0773e+02    2.9957e+02 ;     H5 - C3     - H7    
   922    903    923      1    1.0773e+02    2.9957e+02 ;     H6 - C3     - H7    
   924    904    925      1    1.0773e+02    2.9957e+02 ;     H8 - C4     - H9    
   927    906    928      1    1.0773e+02    2.9957e+02 ;    H11 - C6     - H12   
   927    906    929      1    1.0773e+02    2.9957e+02 ;    H11 - C6     - H13   
   928    906    929      1    1.0773e+02    2.9957e+02 ;    H12 - C6     - H13   
   930    907    931      1    1.0773e+02    2.9957e+02 ;    H14 - C7     - H15   
   933    909    934      1    1.0773e+02    2.9957e+02 ;    H17 - C9     - H18   
   933    909    935      1    1.0773e+02    2.9957e+02 ;    H17 - C9     - H19   
   934    909    935      1    1.0773e+02    2.9957e+02 ;    H18 - C9     - H19   
   936    910    937      1    1.0773e+02    2.9957e+02 ;    H20 - C10    - H21   
   939    912    940      1    1.0773e+02    2.9957e+02 ;    H23 - C12    - H24   
   939    912    941      1    1.0773e+02    2.9957e+02 ;    H23 - C12    - H25   
   940    912    941      1    1.0773e+02    2.9957e+02 ;    H24 - C12    - H25   
   942    913    943      1    1.0773e+02    2.9957e+02 ;    H26 - C13    - H27   
   945    915    946      1    1.0773e+02    2.9957e+02 ;    H29 - C15    - H30   
   945    915    947      1    1.0773e+02    2.9957e+02 ;    H29 - C15    - H31   
   946    915    947      1    1.0773e+02    2.9957e+02 ;    H30 - C15    - H31   
   948    916    949      1    1.0773e+02    2.9957e+02 ;    H32 - C16    - H33   
   948    916    950      1    1.0773e+02    2.9957e+02 ;    H32 - C16    - H34   
   949    916    950      1    1.0773e+02    2.9957e+02 ;    H33 - C16    - H34   
   951    952    953      1    1.1263e+02    5.0099e+02 ;     C1 - C2     - C3    
   951    952    954      1    1.1263e+02    5.0099e+02 ;     C1 - C2     - C4    
   951    952    970      1    1.0968e+02    3.6208e+02 ;     C1 - C2     - H4    
   952    951    967      1    1.0968e+02    3.6208e+02 ;     C2 - C1     - H1    
   952    951    968      1    1.0968e+02    3.6208e+02 ;     C2 - C1     - H2    
   952    951    969      1    1.0968e+02    3.6208e+02 ;     C2 - C1     - H3    
   952    953    971      1    1.0968e+02    3.6208e+02 ;     C2 - C3     - H5    
   952    953    972      1    1.0968e+02    3.6208e+02 ;     C2 - C3     - H6    
   952    953    973      1    1.0968e+02    3.6208e+02 ;     C2 - C3     - H7    
   952    954    955      1    1.1263e+02    5.0099e+02 ;     C2 - C4     - C5    
   952    954    974      1    1.0968e+02    3.6208e+02 ;     C2 - C4     - H8    
   952    954    975      1    1.0968e+02    3.6208e+02 ;     C2 - C4     - H9    
   953    952    954      1    1.1263e+02    5.0099e+02 ;     C3 - C2     - C4    
   953    952    970      1    1.0968e+02    3.6208e+02 ;     C3 - C2     - H4    
   954    952    970      1    1.0968e+02    3.6208e+02 ;     C4 - C2     - H4    
   954    955    956      1    1.1263e+02    5.0099e+02 ;     C4 - C5     - C6    
   954    955    957      1    1.1263e+02    5.0099e+02 ;     C4 - C5     - C7    
   954    955    976      1    1.0968e+02    3.6208e+02 ;     C4 - C5     - H10   
   955    954    974      1    1.0968e+02    3.6208e+02 ;     C5 - C4     - H8    
   955    954    975      1    1.0968e+02    3.6208e+02 ;     C5 - C4     - H9    
   955    956    977      1    1.0968e+02    3.6208e+02 ;     C5 - C6     - H11   
   955    956    978      1    1.0968e+02    3.6208e+02 ;     C5 - C6     - H12   
   955    956    979      1    1.0968e+02    3.6208e+02 ;     C5 - C6     - H13   
   955    957    958      1    1.1263e+02    5.0099e+02 ;     C5 - C7     - C8    
   955    957    980      1    1.0968e+02    3.6208e+02 ;     C5 - C7     - H14   
   955    957    981      1    1.0968e+02    3.6208e+02 ;     C5 - C7     - H15   
   956    955    957      1    1.1263e+02    5.0099e+02 ;     C6 - C5     - C7    
   956    955    976      1    1.0968e+02    3.6208e+02 ;     C6 - C5     - H10   
   957    955    976      1    1.0968e+02    3.6208e+02 ;     C7 - C5     - H10   
   957    958    959      1    1.1263e+02    5.0099e+02 ;     C7 - C8     - C9    
   957    958    960      1    1.1263e+02    5.0099e+02 ;     C7 - C8     - C10   
   957    958    982      1    1.0968e+02    3.6208e+02 ;     C7 - C8     - H16   
   958    957    980      1    1.0968e+02    3.6208e+02 ;     C8 - C7     - H14   
   958    957    981      1    1.0968e+02    3.6208e+02 ;     C8 - C7     - H15   
   958    959    983      1    1.0968e+02    3.6208e+02 ;     C8 - C9     - H17   
   958    959    984      1    1.0968e+02    3.6208e+02 ;     C8 - C9     - H18   
   958    959    985      1    1.0968e+02    3.6208e+02 ;     C8 - C9     - H19   
   958    960    961      1    1.1263e+02    5.0099e+02 ;     C8 - C10    - C11   
   958    960    986      1    1.0968e+02    3.6208e+02 ;     C8 - C10    - H20   
   958    960    987      1    1.0968e+02    3.6208e+02 ;     C8 - C10    - H21   
   959    958    960      1    1.1263e+02    5.0099e+02 ;     C9 - C8     - C10   
   959    958    982      1    1.0968e+02    3.6208e+02 ;     C9 - C8     - H16   
   960    958    982      1    1.0968e+02    3.6208e+02 ;    C10 - C8     - H16   
   960    961    962      1    1.1263e+02    5.0099e+02 ;    C10 - C11    - C12   
   960    961    963      1    1.1263e+02    5.0099e+02 ;    C10 - C11    - C13   
   960    961    988      1    1.0968e+02    3.6208e+02 ;    C10 - C11    - H22   
   961    960    986      1    1.0968e+02    3.6208e+02 ;    C11 - C10    - H20   
   961    960    987      1    1.0968e+02    3.6208e+02 ;    C11 - C10    - H21   
   961    962    989      1    1.0968e+02    3.6208e+02 ;    C11 - C12    - H23   
   961    962    990      1    1.0968e+02    3.6208e+02 ;    C11 - C12    - H24   
   961    962    991      1    1.0968e+02    3.6208e+02 ;    C11 - C12    - H25   
   961    963    964      1    1.1263e+02    5.0099e+02 ;    C11 - C13    - C14   
   961    963    992      1    1.0968e+02    3.6208e+02 ;    C11 - C13    - H26   
   961    963    993      1    1.0968e+02    3.6208e+02 ;    C11 - C13    - H27   
   962    961    963      1    1.1263e+02    5.0099e+02 ;    C12 - C11    - C13   
   962    961    988      1    1.0968e+02    3.6208e+02 ;    C12 - C11    - H22   
   963    961    988      1    1.0968e+02    3.6208e+02 ;    C13 - C11    - H22   
   963    964    965      1    1.1263e+02    5.0099e+02 ;    C13 - C14    - C15   
   963    964    966      1    1.1263e+02    5.0099e+02 ;    C13 - C14    - C16   
   963    964    994      1    1.0968e+02    3.6208e+02 ;    C13 - C14    - H28   
   964    963    992      1    1.0968e+02    3.6208e+02 ;    C14 - C13    - H26   
   964    963    993      1    1.0968e+02    3.6208e+02 ;    C14 - C13    - H27   
   964    965    995      1    1.0968e+02    3.6208e+02 ;    C14 - C15    - H29   
   964    965    996      1    1.0968e+02    3.6208e+02 ;    C14 - C15    - H30   
   964    965    997      1    1.0968e+02    3.6208e+02 ;    C14 - C15    - H31   
   964    966    998      1    1.0968e+02    3.6208e+02 ;    C14 - C16    - H32   
   964    966    999      1    1.0968e+02    3.6208e+02 ;    C14 - C16    - H33   
   964    966   1000      1    1.0968e+02    3.6208e+02 ;    C14 - C16    - H34   
   965    964    966      1    1.1263e+02    5.0099e+02 ;    C15 - C14    - C16   
   965    964    994      1    1.0968e+02    3.6208e+02 ;    C15 - C14    - H28   
   966    964    994      1    1.0968e+02    3.6208e+02 ;    C16 - C14    - H28   
   967    951    968      1    1.0773e+02    2.9957e+02 ;     H1 - C1     - H2    
   967    951    969      1    1.0773e+02    2.9957e+02 ;     H1 - C1     - H3    
   968    951    969      1    1.0773e+02    2.9957e+02 ;     H2 - C1     - H3    
   971    953    972      1    1.0773e+02    2.9957e+02 ;     H5 - C3     - H6    
   971    953    973      1    1.0773e+02    2.9957e+02 ;     H5 - C3     - H7    
   972    953    973      1    1.0773e+02    2.9957e+02 ;     H6 - C3     - H7    
   974    954    975      1    1.0773e+02    2.9957e+02 ;     H8 - C4     - H9    
   977    956    978      1    1.0773e+02    2.9957e+02 ;    H11 - C6     - H12   
   977    956    979      1    1.0773e+02    2.9957e+02 ;    H11 - C6     - H13   
   978    956    979      1    1.0773e+02    2.9957e+02 ;    H12 - C6     - H13   
   980    957    981      1    1.0773e+02    2.9957e+02 ;    H14 - C7     - H15   
   983    959    984      1    1.0773e+02    2.9957e+02 ;    H17 - C9     - H18   
   983    959    985      1    1.0773e+02    2.9957e+02 ;    H17 - C9     - H19   
   984    959    985      1    1.0773e+02    2.9957e+02 ;    H18 - C9     - H19   
   986    960    987      1    1.0773e+02    2.9957e+02 ;    H20 - C10    - H21   
   989    962    990      1    1.0773e+02    2.9957e+02 ;    H23 - C12    - H24   
   989    962    991      1    1.0773e+02    2.9957e+02 ;    H23 - C12    - H25   
   990    962    991      1    1.0773e+02    2.9957e+02 ;    H24 - C12    - H25   
   992    963    993      1    1.0773e+02    2.9957e+02 ;    H26 - C13    - H27   
   995    965    996      1    1.0773e+02    2.9957e+02 ;    H29 - C15    - H30   
   995    965    997      1    1.0773e+02    2.9957e+02 ;    H29 - C15    - H31   
   996    965    997      1    1.0773e+02    2.9957e+02 ;    H30 - C15    - H31   
   998    966    999      1    1.0773e+02    2.9957e+02 ;    H32 - C16    - H33   
   998    966   1000      1    1.0773e+02    2.9957e+02 ;    H32 - C16    - H34   
   999    966   1000      1    1.0773e+02    2.9957e+02 ;    H33 - C16    - H34   

[ dihedrals ] ; propers
; for gromacs 4.5 or higher, using funct 9
;    i      j      k      l   func   phase     kd      pn
     1      2      3     21      9     0.00   0.54392   3 ;     C1-    C2-    C3-    H5
     1      2      3     22      9     0.00   0.54392   3 ;     C1-    C2-    C3-    H6
     1      2      3     23      9     0.00   0.54392   3 ;     C1-    C2-    C3-    H7
     1      2      4      5      9     0.00   2.17568   3 ;     C1-    C2-    C4-    C5
     1      2      4     24      9     0.00   0.54392   3 ;     C1-    C2-    C4-    H8
     1      2      4     25      9     0.00   0.54392   3 ;     C1-    C2-    C4-    H9
     2      4      5      6      9     0.00   2.17568   3 ;     C2-    C4-    C5-    C6
     2      4      5      7      9     0.00   2.17568   3 ;     C2-    C4-    C5-    C7
     2      4      5     26      9     0.00   0.54392   3 ;     C2-    C4-    C5-   H10
     3      2      4      5      9     0.00   2.17568   3 ;     C3-    C2-    C4-    C5
     3      2      4     24      9     0.00   0.54392   3 ;     C3-    C2-    C4-    H8
     3      2      4     25      9     0.00   0.54392   3 ;     C3-    C2-    C4-    H9
     4      2      3     21      9     0.00   0.54392   3 ;     C4-    C2-    C3-    H5
     4      2      3     22      9     0.00   0.54392   3 ;     C4-    C2-    C3-    H6
     4      2      3     23      9     0.00   0.54392   3 ;     C4-    C2-    C3-    H7
     4      5      6     27      9     0.00   0.54392   3 ;     C4-    C5-    C6-   H11
     4      5      6     28      9     0.00   0.54392   3 ;     C4-    C5-    C6-   H12
     4      5      6     29      9     0.00   0.54392   3 ;     C4-    C5-    C6-   H13
     4      5      7      8      9     0.00   2.17568   3 ;     C4-    C5-    C7-    C8
     4      5      7     30      9     0.00   0.54392   3 ;     C4-    C5-    C7-   H14
     4      5      7     31      9     0.00   0.54392   3 ;     C4-    C5-    C7-   H15
     5      4      2     20      9     0.00   0.54392   3 ;     C5-    C4-    C2-    H4
     5      7      8      9      9     0.00   2.17568   3 ;     C5-    C7-    C8-    C9
     5      7      8     10      9     0.00   2.17568   3 ;     C5-    C7-    C8-   C10
     5      7      8     32      9     0.00   0.54392   3 ;     C5-    C7-    C8-   H16
     6      5      4     24      9     0.00   0.54392   3 ;     C6-    C5-    C4-    H8
     6      5      4     25      9     0.00   0.54392   3 ;     C6-    C5-    C4-    H9
     6      5      7      8      9     0.00   2.17568   3 ;     C6-    C5-    C7-    C8
     6      5      7     30      9     0.00   0.54392   3 ;     C6-    C5-    C7-   H14
     6      5      7     31      9     0.00   0.54392   3 ;     C6-    C5-    C7-   H15
     7      5      4     24      9     0.00   0.54392   3 ;     C7-    C5-    C4-    H8
     7      5      4     25      9     0.00   0.54392   3 ;     C7-    C5-    C4-    H9
     7      5      6     27      9     0.00   0.54392   3 ;     C7-    C5-    C6-   H11
     7      5      6     28      9     0.00   0.54392   3 ;     C7-    C5-    C6-   H12
     7      5      6     29      9     0.00   0.54392   3 ;     C7-    C5-    C6-   H13
     7      8      9     33      9     0.00   0.54392   3 ;     C7-    C8-    C9-   H17
     7      8      9     34      9     0.00   0.54392   3 ;     C7-    C8-    C9-   H18
     7      8      9     35      9     0.00   0.54392   3 ;     C7-    C8-    C9-   H19
     7      8     10     11      9     0.00   2.17568   3 ;     C7-    C8-   C10-   C11
     7      8     10     36      9     0.00   0.54392   3 ;     C7-    C8-   C10-   H20
     7      8     10     37      9     0.00   0.54392   3 ;     C7-    C8-   C10-   H21
     8      7      5     26      9     0.00   0.54392   3 ;     C8-    C7-    C5-   H10
     8     10     11     12      9     0.00   2.17568   3 ;     C8-   C10-   C11-   C12
     8     10     11     13      9     0.00   2.17568   3 ;     C8-   C10-   C11-   C13
     8     10     11     38      9     0.00   0.54392   3 ;     C8-   C10-   C11-   H22
     9      8      7     30      9     0.00   0.54392   3 ;     C9-    C8-    C7-   H14
     9      8      7     31      9     0.00   0.54392   3 ;     C9-    C8-    C7-   H15
     9      8     10     11      9     0.00   2.17568   3 ;     C9-    C8-   C10-   C11
     9      8     10     36      9     0.00   0.54392   3 ;     C9-    C8-   C10-   H20
     9      8     10     37      9     0.00   0.54392   3 ;     C9-    C8-   C10-   H21
    10      8      7     30      9     0.00   0.54392   3 ;    C10-    C8-    C7-   H14
    10      8      7     31      9     0.00   0.54392   3 ;    C10-    C8-    C7-   H15
    10      8      9     33      9     0.00   0.54392   3 ;    C10-    C8-    C9-   H17
    10      8      9     34      9     0.00   0.54392   3 ;    C10-    C8-    C9-   H18
    10      8      9     35      9     0.00   0.54392   3 ;    C10-    C8-    C9-   H19
    10     11     12     39      9     0.00   0.54392   3 ;    C10-   C11-   C12-   H23
    10     11     12     40      9     0.00   0.54392   3 ;    C10-   C11-   C12-   H24
    10     11     12     41      9     0.00   0.54392   3 ;    C10-   C11-   C12-   H25
    10     11     13     14      9     0.00   2.17568   3 ;    C10-   C11-   C13-   C14
    10     11     13     42      9     0.00   0.54392   3 ;    C10-   C11-   C13-   H26
    10     11     13     43      9     0.00   0.54392   3 ;    C10-   C11-   C13-   H27
    11     10      8     32      9     0.00   0.54392   3 ;    C11-   C10-    C8-   H16
    11     13     14     15      9     0.00   2.17568   3 ;    C11-   C13-   C14-   C15
    11     13     14     16      9     0.00   2.17568   3 ;    C11-   C13-   C14-   C16
    11     13     14     44      9     0.00   0.54392   3 ;    C11-   C13-   C14-   H28
    12     11     10     36      9     0.00   0.54392   3 ;    C12-   C11-   C10-   H20
    12     11     10     37      9     0.00   0.54392   3 ;    C12-   C11-   C10-   H21
    12     11     13     14      9     0.00   2.17568   3 ;    C12-   C11-   C13-   C14
    12     11     13     42      9     0.00   0.54392   3 ;    C12-   C11-   C13-   H26
    12     11     13     43      9     0.00   0.54392   3 ;    C12-   C11-   C13-   H27
    13     11     10     36      9     0.00   0.54392   3 ;    C13-   C11-   C10-   H20
    13     11     10     37      9     0.00   0.54392   3 ;    C13-   C11-   C10-   H21
    13     11     12     39      9     0.00   0.54392   3 ;    C13-   C11-   C12-   H23
    13     11     12     40      9     0.00   0.54392   3 ;    C13-   C11-   C12-   H24
    13     11     12     41      9     0.00   0.54392   3 ;    C13-   C11-   C12-   H25
    13     14     15     45      9     0.00   0.54392   3 ;    C13-   C14-   C15-   H29
    13     14     15     46      9     0.00   0.54392   3 ;    C13-   C14-   C15-   H30
    13     14     15     47      9     0.00   0.54392   3 ;    C13-   C14-   C15-   H31
    13     14     16     48      9     0.00   0.54392   3 ;    C13-   C14-   C16-   H32
    13     14     16     49      9     0.00   0.54392   3 ;    C13-   C14-   C16-   H33
    13     14     16     50      9     0.00   0.54392   3 ;    C13-   C14-   C16-   H34
    14     13     11     38      9     0.00   0.54392   3 ;    C14-   C13-   C11-   H22
    15     14     13     42      9     0.00   0.54392   3 ;    C15-   C14-   C13-   H26
    15     14     13     43      9     0.00   0.54392   3 ;    C15-   C14-   C13-   H27
    15     14     16     48      9     0.00   0.54392   3 ;    C15-   C14-   C16-   H32
    15     14     16     49      9     0.00   0.54392   3 ;    C15-   C14-   C16-   H33
    15     14     16     50      9     0.00   0.54392   3 ;    C15-   C14-   C16-   H34
    16     14     13     42      9     0.00   0.54392   3 ;    C16-   C14-   C13-   H26
    16     14     13     43      9     0.00   0.54392   3 ;    C16-   C14-   C13-   H27
    16     14     15     45      9     0.00   0.54392   3 ;    C16-   C14-   C15-   H29
    16     14     15     46      9     0.00   0.54392   3 ;    C16-   C14-   C15-   H30
    16     14     15     47      9     0.00   0.54392   3 ;    C16-   C14-   C15-   H31
    17      1      2      3      9     0.00   0.54392   3 ;     H1-    C1-    C2-    C3
    17      1      2      4      9     0.00   0.54392   3 ;     H1-    C1-    C2-    C4
    17      1      2     20      9     0.00   0.50208   3 ;     H1-    C1-    C2-    H4
    18      1      2      3      9     0.00   0.54392   3 ;     H2-    C1-    C2-    C3
    18      1      2      4      9     0.00   0.54392   3 ;     H2-    C1-    C2-    C4
    18      1      2     20      9     0.00   0.50208   3 ;     H2-    C1-    C2-    H4
    19      1      2      3      9     0.00   0.54392   3 ;     H3-    C1-    C2-    C3
    19      1      2      4      9     0.00   0.54392   3 ;     H3-    C1-    C2-    C4
    19      1      2     20      9     0.00   0.50208   3 ;     H3-    C1-    C2-    H4
    20      2      3     21      9     0.00   0.50208   3 ;     H4-    C2-    C3-    H5
    20      2      3     22      9     0.00   0.50208   3 ;     H4-    C2-    C3-    H6
    20      2      3     23      9     0.00   0.50208   3 ;     H4-    C2-    C3-    H7
    20      2      4     24      9     0.00   0.50208   3 ;     H4-    C2-    C4-    H8
    20      2      4     25      9     0.00   0.50208   3 ;     H4-    C2-    C4-    H9
    24      4      5     26      9     0.00   0.50208   3 ;     H8-    C4-    C5-   H10
    25      4      5     26      9     0.00   0.50208   3 ;     H9-    C4-    C5-   H10
    26      5      6     27      9     0.00   0.50208   3 ;    H10-    C5-    C6-   H11
    26      5      6     28      9     0.00   0.50208   3 ;    H10-    C5-    C6-   H12
    26      5      6     29      9     0.00   0.50208   3 ;    H10-    C5-    C6-   H13
    26      5      7     30      9     0.00   0.50208   3 ;    H10-    C5-    C7-   H14
    26      5      7     31      9     0.00   0.50208   3 ;    H10-    C5-    C7-   H15
    30      7      8     32      9     0.00   0.50208   3 ;    H14-    C7-    C8-   H16
    31      7      8     32      9     0.00   0.50208   3 ;    H15-    C7-    C8-   H16
    32      8      9     33      9     0.00   0.50208   3 ;    H16-    C8-    C9-   H17
    32      8      9     34      9     0.00   0.50208   3 ;    H16-    C8-    C9-   H18
    32      8      9     35      9     0.00   0.50208   3 ;    H16-    C8-    C9-   H19
    32      8     10     36      9     0.00   0.50208   3 ;    H16-    C8-   C10-   H20
    32      8     10     37      9     0.00   0.50208   3 ;    H16-    C8-   C10-   H21
    36     10     11     38      9     0.00   0.50208   3 ;    H20-   C10-   C11-   H22
    37     10     11     38      9     0.00   0.50208   3 ;    H21-   C10-   C11-   H22
    38     11     12     39      9     0.00   0.50208   3 ;    H22-   C11-   C12-   H23
    38     11     12     40      9     0.00   0.50208   3 ;    H22-   C11-   C12-   H24
    38     11     12     41      9     0.00   0.50208   3 ;    H22-   C11-   C12-   H25
    38     11     13     42      9     0.00   0.50208   3 ;    H22-   C11-   C13-   H26
    38     11     13     43      9     0.00   0.50208   3 ;    H22-   C11-   C13-   H27
    42     13     14     44      9     0.00   0.50208   3 ;    H26-   C13-   C14-   H28
    43     13     14     44      9     0.00   0.50208   3 ;    H27-   C13-   C14-   H28
    44     14     15     45      9     0.00   0.50208   3 ;    H28-   C14-   C15-   H29
    44     14     15     46      9     0.00   0.50208   3 ;    H28-   C14-   C15-   H30
    44     14     15     47      9     0.00   0.50208   3 ;    H28-   C14-   C15-   H31
    44     14     16     48      9     0.00   0.50208   3 ;    H28-   C14-   C16-   H32
    44     14     16     49      9     0.00   0.50208   3 ;    H28-   C14-   C16-   H33
    44     14     16     50      9     0.00   0.50208   3 ;    H28-   C14-   C16-   H34
    51     52     53     71      9     0.00   0.54392   3 ;     C1-    C2-    C3-    H5
    51     52     53     72      9     0.00   0.54392   3 ;     C1-    C2-    C3-    H6
    51     52     53     73      9     0.00   0.54392   3 ;     C1-    C2-    C3-    H7
    51     52     54     55      9     0.00   2.17568   3 ;     C1-    C2-    C4-    C5
    51     52     54     74      9     0.00   0.54392   3 ;     C1-    C2-    C4-    H8
    51     52     54     75      9     0.00   0.54392   3 ;     C1-    C2-    C4-    H9
    52     54     55     56      9     0.00   2.17568   3 ;     C2-    C4-    C5-    C6
    52     54     55     57      9     0.00   2.17568   3 ;     C2-    C4-    C5-    C7
    52     54     55     76      9     0.00   0.54392   3 ;     C2-    C4-    C5-   H10
    53     52     51     67      9     0.00   0.54392   3 ;     C3-    C2-    C1-    H1
    53     52     51     68      9     0.00   0.54392   3 ;     C3-    C2-    C1-    H2
    53     52     51     69      9     0.00   0.54392   3 ;     C3-    C2-    C1-    H3
    53     52     54     55      9     0.00   2.17568   3 ;     C3-    C2-    C4-    C5
    53     52     54     74      9     0.00   0.54392   3 ;     C3-    C2-    C4-    H8
    53     52     54     75      9     0.00   0.54392   3 ;     C3-    C2-    C4-    H9
    54     52     51     67      9     0.00   0.54392   3 ;     C4-    C2-    C1-    H1
    54     52     51     68      9     0.00   0.54392   3 ;     C4-    C2-    C1-    H2
    54     52     51     69      9     0.00   0.54392   3 ;     C4-    C2-    C1-    H3
    54     52     53     71      9     0.00   0.54392   3 ;     C4-    C2-    C3-    H5
    54     52     53     72      9     0.00   0.54392   3 ;     C4-    C2-    C3-    H6
    54     52     53     73      9     0.00   0.54392   3 ;     C4-    C2-    C3-    H7
    54     55     56     77      9     0.00   0.54392   3 ;     C4-    C5-    C6-   H11
    54     55     56     78      9     0.00   0.54392   3 ;     C4-    C5-    C6-   H12
    54     55     56     79      9     0.00   0.54392   3 ;     C4-    C5-    C6-   H13
    54     55     57     58      9     0.00   2.17568   3 ;     C4-    C5-    C7-    C8
    54     55     57     80      9     0.00   0.54392   3 ;     C4-    C5-    C7-   H14
    54     55     57     81      9     0.00   0.54392   3 ;     C4-    C5-    C7-   H15
    55     54     52     70      9     0.00   0.54392   3 ;     C5-    C4-    C2-    H4
    55     57     58     59      9     0.00   2.17568   3 ;     C5-    C7-    C8-    C9
    55     57     58     60      9     0.00   2.17568   3 ;     C5-    C7-    C8-   C10
    55     57     58     82      9     0.00   0.54392   3 ;     C5-    C7-    C8-   H16
    56     55     54     74      9     0.00   0.54392   3 ;     C6-    C5-    C4-    H8
    56     55     54     75      9     0.00   0.54392   3 ;     C6-    C5-    C4-    H9
    56     55     57     58      9     0.00   2.17568   3 ;     C6-    C5-    C7-    C8
    56     55     57     80      9     0.00   0.54392   3 ;     C6-    C5-    C7-   H14
    56     55     57     81      9     0.00   0.54392   3 ;     C6-    C5-    C7-   H15
    57     55     54     74      9     0.00   0.54392   3 ;     C7-    C5-    C4-    H8
    57     55     54     75      9     0.00   0.54392   3 ;     C7-    C5-    C4-    H9
    57     55     56     77      9     0.00   0.54392   3 ;     C7-    C5-    C6-   H11
    57     55     56     78      9     0.00   0.54392   3 ;     C7-    C5-    C6-   H12
    57     55     56     79      9     0.00   0.54392   3 ;     C7-    C5-    C6-   H13
    57     58     59     83      9     0.00   0.54392   3 ;     C7-    C8-    C9-   H17
    57     58     59     84      9     0.00   0.54392   3 ;     C7-    C8-    C9-   H18
    57     58     59     85      9     0.00   0.54392   3 ;     C7-    C8-    C9-   H19
    57     58     60     61      9     0.00   2.17568   3 ;     C7-    C8-   C10-   C11
    57     58     60     86      9     0.00   0.54392   3 ;     C7-    C8-   C10-   H20
    57     58     60     87      9     0.00   0.54392   3 ;     C7-    C8-   C10-   H21
    58     57     55     76      9     0.00   0.54392   3 ;     C8-    C7-    C5-   H10
    58     60     61     62      9     0.00   2.17568   3 ;     C8-   C10-   C11-   C12
    58     60     61     63      9     0.00   2.17568   3 ;     C8-   C10-   C11-   C13
    58     60     61     88      9     0.00   0.54392   3 ;     C8-   C10-   C11-   H22
    59     58     57     80      9     0.00   0.54392   3 ;     C9-    C8-    C7-   H14
    59     58     57     81      9     0.00   0.54392   3 ;     C9-    C8-    C7-   H15
    59     58     60     61      9     0.00   2.17568   3 ;     C9-    C8-   C10-   C11
    59     58     60     86      9     0.00   0.54392   3 ;     C9-    C8-   C10-   H20
    59     58     60     87      9     0.00   0.54392   3 ;     C9-    C8-   C10-   H21
    60     58     57     80      9     0.00   0.54392   3 ;    C10-    C8-    C7-   H14
    60     58     57     81      9     0.00   0.54392   3 ;    C10-    C8-    C7-   H15
    60     58     59     83      9     0.00   0.54392   3 ;    C10-    C8-    C9-   H17
    60     58     59     84      9     0.00   0.54392   3 ;    C10-    C8-    C9-   H18
    60     58     59     85      9     0.00   0.54392   3 ;    C10-    C8-    C9-   H19
    60     61     62     89      9     0.00   0.54392   3 ;    C10-   C11-   C12-   H23
    60     61     62     90      9     0.00   0.54392   3 ;    C10-   C11-   C12-   H24
    60     61     62     91      9     0.00   0.54392   3 ;    C10-   C11-   C12-   H25
    60     61     63     64      9     0.00   2.17568   3 ;    C10-   C11-   C13-   C14
    60     61     63     92      9     0.00   0.54392   3 ;    C10-   C11-   C13-   H26
    60     61     63     93      9     0.00   0.54392   3 ;    C10-   C11-   C13-   H27
    61     60     58     82      9     0.00   0.54392   3 ;    C11-   C10-    C8-   H16
    61     63     64     65      9     0.00   2.17568   3 ;    C11-   C13-   C14-   C15
    61     63     64     66      9     0.00   2.17568   3 ;    C11-   C13-   C14-   C16
    61     63     64     94      9     0.00   0.54392   3 ;    C11-   C13-   C14-   H28
    62     61     60     86      9     0.00   0.54392   3 ;    C12-   C11-   C10-   H20
    62     61     60     87      9     0.00   0.54392   3 ;    C12-   C11-   C10-   H21
    62     61     63     64      9     0.00   2.17568   3 ;    C12-   C11-   C13-   C14
    62     61     63     92      9     0.00   0.54392   3 ;    C12-   C11-   C13-   H26
    62     61     63     93      9     0.00   0.54392   3 ;    C12-   C11-   C13-   H27
    63     61     60     86      9     0.00   0.54392   3 ;    C13-   C11-   C10-   H20
    63     61     60     87      9     0.00   0.54392   3 ;    C13-   C11-   C10-   H21
    63     61     62     89      9     0.00   0.54392   3 ;    C13-   C11-   C12-   H23
    63     61     62     90      9     0.00   0.54392   3 ;    C13-   C11-   C12-   H24
    63     61     62     91      9     0.00   0.54392   3 ;    C13-   C11-   C12-   H25
    63     64     65     95      9     0.00   0.54392   3 ;    C13-   C14-   C15-   H29
    63     64     65     96      9     0.00   0.54392   3 ;    C13-   C14-   C15-   H30
    63     64     65     97      9     0.00   0.54392   3 ;    C13-   C14-   C15-   H31
    63     64     66     98      9     0.00   0.54392   3 ;    C13-   C14-   C16-   H32
    63     64     66     99      9     0.00   0.54392   3 ;    C13-   C14-   C16-   H33
    63     64     66    100      9     0.00   0.54392   3 ;    C13-   C14-   C16-   H34
    64     63     61     88      9     0.00   0.54392   3 ;    C14-   C13-   C11-   H22
    65     64     63     92      9     0.00   0.54392   3 ;    C15-   C14-   C13-   H26
    65     64     63     93      9     0.00   0.54392   3 ;    C15-   C14-   C13-   H27
    65     64     66     98      9     0.00   0.54392   3 ;    C15-   C14-   C16-   H32
    65     64     66     99      9     0.00   0.54392   3 ;    C15-   C14-   C16-   H33
    65     64     66    100      9     0.00   0.54392   3 ;    C15-   C14-   C16-   H34
    66     64     63     92      9     0.00   0.54392   3 ;    C16-   C14-   C13-   H26
    66     64     63     93      9     0.00   0.54392   3 ;    C16-   C14-   C13-   H27
    66     64     65     95      9     0.00   0.54392   3 ;    C16-   C14-   C15-   H29
    66     64     65     96      9     0.00   0.54392   3 ;    C16-   C14-   C15-   H30
    66     64     65     97      9     0.00   0.54392   3 ;    C16-   C14-   C15-   H31
    67     51     52     70      9     0.00   0.50208   3 ;     H1-    C1-    C2-    H4
    68     51     52     70      9     0.00   0.50208   3 ;     H2-    C1-    C2-    H4
    69     51     52     70      9     0.00   0.50208   3 ;     H3-    C1-    C2-    H4
    70     52     53     71      9     0.00   0.50208   3 ;     H4-    C2-    C3-    H5
    70     52     53     72      9     0.00   0.50208   3 ;     H4-    C2-    C3-    H6
    70     52     53     73      9     0.00   0.50208   3 ;     H4-    C2-    C3-    H7
    70     52     54     74      9     0.00   0.50208   3 ;     H4-    C2-    C4-    H8
    70     52     54     75      9     0.00   0.50208   3 ;     H4-    C2-    C4-    H9
    74     54     55     76      9     0.00   0.50208   3 ;     H8-    C4-    C5-   H10
    75     54     55     76      9     0.00   0.50208   3 ;     H9-    C4-    C5-   H10
    76     55     56     77      9     0.00   0.50208   3 ;    H10-    C5-    C6-   H11
    76     55     56     78      9     0.00   0.50208   3 ;    H10-    C5-    C6-   H12
    76     55     56     79      9     0.00   0.50208   3 ;    H10-    C5-    C6-   H13
    76     55     57     80      9     0.00   0.50208   3 ;    H10-    C5-    C7-   H14
    76     55     57     81      9     0.00   0.50208   3 ;    H10-    C5-    C7-   H15
    80     57     58     82      9     0.00   0.50208   3 ;    H14-    C7-    C8-   H16
    81     57     58     82      9     0.00   0.50208   3 ;    H15-    C7-    C8-   H16
    82     58     59     83      9     0.00   0.50208   3 ;    H16-    C8-    C9-   H17
    82     58     59     84      9     0.00   0.50208   3 ;    H16-    C8-    C9-   H18
    82     58     59     85      9     0.00   0.50208   3 ;    H16-    C8-    C9-   H19
    82     58     60     86      9     0.00   0.50208   3 ;    H16-    C8-   C10-   H20
    82     58     60     87      9     0.00   0.50208   3 ;    H16-    C8-   C10-   H21
    86     60     61     88      9     0.00   0.50208   3 ;    H20-   C10-   C11-   H22
    87     60     61     88      9     0.00   0.50208   3 ;    H21-   C10-   C11-   H22
    88     61     62     89      9     0.00   0.50208   3 ;    H22-   C11-   C12-   H23
    88     61     62     90      9     0.00   0.50208   3 ;    H22-   C11-   C12-   H24
    88     61     62     91      9     0.00   0.50208   3 ;    H22-   C11-   C12-   H25
    88     61     63     92      9     0.00   0.50208   3 ;    H22-   C11-   C13-   H26
    88     61     63     93      9     0.00   0.50208   3 ;    H22-   C11-   C13-   H27
    92     63     64     94      9     0.00   0.50208   3 ;    H26-   C13-   C14-   H28
    93     63     64     94      9     0.00   0.50208   3 ;    H27-   C13-   C14-   H28
    94     64     65     95      9     0.00   0.50208   3 ;    H28-   C14-   C15-   H29
    94     64     65     96      9     0.00   0.50208   3 ;    H28-   C14-   C15-   H30
    94     64     65     97      9     0.00   0.50208   3 ;    H28-   C14-   C15-   H31
    94     64     66     98      9     0.00   0.50208   3 ;    H28-   C14-   C16-   H32
    94     64     66     99      9     0.00   0.50208   3 ;    H28-   C14-   C16-   H33
    94     64     66    100      9     0.00   0.50208   3 ;    H28-   C14-   C16-   H34
   101    102    103    121      9     0.00   0.54392   3 ;     C1-    C2-    C3-    H5
   101    102    103    122      9     0.00   0.54392   3 ;     C1-    C2-    C3-    H6
   101    102    103    123      9     0.00   0.54392   3 ;     C1-    C2-    C3-    H7
   101    102    104    105      9     0.00   2.17568   3 ;     C1-    C2-    C4-    C5
   101    102    104    124      9     0.00   0.54392   3 ;     C1-    C2-    C4-    H8
   101    102    104    125      9     0.00   0.54392   3 ;     C1-    C2-    C4-    H9
   102    104    105    106      9     0.00   2.17568   3 ;     C2-    C4-    C5-    C6
   102    104    105    107      9     0.00   2.17568   3 ;     C2-    C4-    C5-    C7
   102    104    105    126      9     0.00   0.54392   3 ;     C2-    C4-    C5-   H10
   103    102    101    117      9     0.00   0.54392   3 ;     C3-    C2-    C1-    H1
   103    102    101    118      9     0.00   0.54392   3 ;     C3-    C2-    C1-    H2
   103    102    101    119      9     0.00   0.54392   3 ;     C3-    C2-    C1-    H3
   103    102    104    105      9     0.00   2.17568   3 ;     C3-    C2-    C4-    C5
   103    102    104    124      9     0.00   0.54392   3 ;     C3-    C2-    C4-    H8
   103    102    104    125      9     0.00   0.54392   3 ;     C3-    C2-    C4-    H9
   104    102    101    117      9     0.00   0.54392   3 ;     C4-    C2-    C1-    H1
   104    102    101    118      9     0.00   0.54392   3 ;     C4-    C2-    C1-    H2
   104    102    101    119      9     0.00   0.54392   3 ;     C4-    C2-    C1-    H3
   104    102    103    121      9     0.00   0.54392   3 ;     C4-    C2-    C3-    H5
   104    102    103    122      9     0.00   0.54392   3 ;     C4-    C2-    C3-    H6
   104    102    103    123      9     0.00   0.54392   3 ;     C4-    C2-    C3-    H7
   104    105    106    127      9     0.00   0.54392   3 ;     C4-    C5-    C6-   H11
   104    105    106    128      9     0.00   0.54392   3 ;     C4-    C5-    C6-   H12
   104    105    106    129      9     0.00   0.54392   3 ;     C4-    C5-    C6-   H13
   104    105    107    108      9     0.00   2.17568   3 ;     C4-    C5-    C7-    C8
   104    105    107    130      9     0.00   0.54392   3 ;     C4-    C5-    C7-   H14
   104    105    107    131      9     0.00   0.54392   3 ;     C4-    C5-    C7-   H15
   105    104    102    120      9     0.00   0.54392   3 ;     C5-    C4-    C2-    H4
   105    107    108    109      9     0.00   2.17568   3 ;     C5-    C7-    C8-    C9
   105    107    108    110      9     0.00   2.17568   3 ;     C5-    C7-    C8-   C10
   105    107    108    132      9     0.00   0.54392   3 ;     C5-    C7-    C8-   H16
   106    105    104    124      9     0.00   0.54392   3 ;     C6-    C5-    C4-    H8
   106    105    104    125      9     0.00   0.54392   3 ;     C6-    C5-    C4-    H9
   106    105    107    108      9     0.00   2.17568   3 ;     C6-    C5-    C7-    C8
   106    105    107    130      9     0.00   0.54392   3 ;     C6-    C5-    C7-   H14
   106    105    107    131      9     0.00   0.54392   3 ;     C6-    C5-    C7-   H15
   107    105    104    124      9     0.00   0.54392   3 ;     C7-    C5-    C4-    H8
   107    105    104    125      9     0.00   0.54392   3 ;     C7-    C5-    C4-    H9
   107    105    106    127      9     0.00   0.54392   3 ;     C7-    C5-    C6-   H11
   107    105    106    128      9     0.00   0.54392   3 ;     C7-    C5-    C6-   H12
   107    105    106    129      9     0.00   0.54392   3 ;     C7-    C5-    C6-   H13
   107    108    109    133      9     0.00   0.54392   3 ;     C7-    C8-    C9-   H17
   107    108    109    134      9     0.00   0.54392   3 ;     C7-    C8-    C9-   H18
   107    108    109    135      9     0.00   0.54392   3 ;     C7-    C8-    C9-   H19
   107    108    110    111      9     0.00   2.17568   3 ;     C7-    C8-   C10-   C11
   107    108    110    136      9     0.00   0.54392   3 ;     C7-    C8-   C10-   H20
   107    108    110    137      9     0.00   0.54392   3 ;     C7-    C8-   C10-   H21
   108    107    105    126      9     0.00   0.54392   3 ;     C8-    C7-    C5-   H10
   108    110    111    112      9     0.00   2.17568   3 ;     C8-   C10-   C11-   C12
   108    110    111    113      9     0.00   2.17568   3 ;     C8-   C10-   C11-   C13
   108    110    111    138      9     0.00   0.54392   3 ;     C8-   C10-   C11-   H22
   109    108    107    130      9     0.00   0.54392   3 ;     C9-    C8-    C7-   H14
   109    108    107    131      9     0.00   0.54392   3 ;     C9-    C8-    C7-   H15
   109    108    110    111      9     0.00   2.17568   3 ;     C9-    C8-   C10-   C11
   109    108    110    136      9     0.00   0.54392   3 ;     C9-    C8-   C10-   H20
   109    108    110    137      9     0.00   0.54392   3 ;     C9-    C8-   C10-   H21
   110    108    107    130      9     0.00   0.54392   3 ;    C10-    C8-    C7-   H14
   110    108    107    131      9     0.00   0.54392   3 ;    C10-    C8-    C7-   H15
   110    108    109    133      9     0.00   0.54392   3 ;    C10-    C8-    C9-   H17
   110    108    109    134      9     0.00   0.54392   3 ;    C10-    C8-    C9-   H18
   110    108    109    135      9     0.00   0.54392   3 ;    C10-    C8-    C9-   H19
   110    111    112    139      9     0.00   0.54392   3 ;    C10-   C11-   C12-   H23
   110    111    112    140      9     0.00   0.54392   3 ;    C10-   C11-   C12-   H24
   110    111    112    141      9     0.00   0.54392   3 ;    C10-   C11-   C12-   H25
   110    111    113    114      9     0.00   2.17568   3 ;    C10-   C11-   C13-   C14
   110    111    113    142      9     0.00   0.54392   3 ;    C10-   C11-   C13-   H26
   110    111    113    143      9     0.00   0.54392   3 ;    C10-   C11-   C13-   H27
   111    110    108    132      9     0.00   0.54392   3 ;    C11-   C10-    C8-   H16
   111    113    114    115      9     0.00   2.17568   3 ;    C11-   C13-   C14-   C15
   111    113    114    116      9     0.00   2.17568   3 ;    C11-   C13-   C14-   C16
   111    113    114    144      9     0.00   0.54392   3 ;    C11-   C13-   C14-   H28
   112    111    110    136      9     0.00   0.54392   3 ;    C12-   C11-   C10-   H20
   112    111    110    137      9     0.00   0.54392   3 ;    C12-   C11-   C10-   H21
   112    111    113    114      9     0.00   2.17568   3 ;    C12-   C11-   C13-   C14
   112    111    113    142      9     0.00   0.54392   3 ;    C12-   C11-   C13-   H26
   112    111    113    143      9     0.00   0.54392   3 ;    C12-   C11-   C13-   H27
   113    111    110    136      9     0.00   0.54392   3 ;    C13-   C11-   C10-   H20
   113    111    110    137      9     0.00   0.54392   3 ;    C13-   C11-   C10-   H21
   113    111    112    139      9     0.00   0.54392   3 ;    C13-   C11-   C12-   H23
   113    111    112    140      9     0.00   0.54392   3 ;    C13-   C11-   C12-   H24
   113    111    112    141      9     0.00   0.54392   3 ;    C13-   C11-   C12-   H25
   113    114    115    145      9     0.00   0.54392   3 ;    C13-   C14-   C15-   H29
   113    114    115    146      9     0.00   0.54392   3 ;    C13-   C14-   C15-   H30
   113    114    115    147      9     0.00   0.54392   3 ;    C13-   C14-   C15-   H31
   113    114    116    148      9     0.00   0.54392   3 ;    C13-   C14-   C16-   H32
   113    114    116    149      9     0.00   0.54392   3 ;    C13-   C14-   C16-   H33
   113    114    116    150      9     0.00   0.54392   3 ;    C13-   C14-   C16-   H34
   114    113    111    138      9     0.00   0.54392   3 ;    C14-   C13-   C11-   H22
   115    114    113    142      9     0.00   0.54392   3 ;    C15-   C14-   C13-   H26
   115    114    113    143      9     0.00   0.54392   3 ;    C15-   C14-   C13-   H27
   115    114    116    148      9     0.00   0.54392   3 ;    C15-   C14-   C16-   H32
   115    114    116    149      9     0.00   0.54392   3 ;    C15-   C14-   C16-   H33
   115    114    116    150      9     0.00   0.54392   3 ;    C15-   C14-   C16-   H34
   116    114    113    142      9     0.00   0.54392   3 ;    C16-   C14-   C13-   H26
   116    114    113    143      9     0.00   0.54392   3 ;    C16-   C14-   C13-   H27
   116    114    115    145      9     0.00   0.54392   3 ;    C16-   C14-   C15-   H29
   116    114    115    146      9     0.00   0.54392   3 ;    C16-   C14-   C15-   H30
   116    114    115    147      9     0.00   0.54392   3 ;    C16-   C14-   C15-   H31
   117    101    102    120      9     0.00   0.50208   3 ;     H1-    C1-    C2-    H4
   118    101    102    120      9     0.00   0.50208   3 ;     H2-    C1-    C2-    H4
   119    101    102    120      9     0.00   0.50208   3 ;     H3-    C1-    C2-    H4
   120    102    103    121      9     0.00   0.50208   3 ;     H4-    C2-    C3-    H5
   120    102    103    122      9     0.00   0.50208   3 ;     H4-    C2-    C3-    H6
   120    102    103    123      9     0.00   0.50208   3 ;     H4-    C2-    C3-    H7
   120    102    104    124      9     0.00   0.50208   3 ;     H4-    C2-    C4-    H8
   120    102    104    125      9     0.00   0.50208   3 ;     H4-    C2-    C4-    H9
   124    104    105    126      9     0.00   0.50208   3 ;     H8-    C4-    C5-   H10
   125    104    105    126      9     0.00   0.50208   3 ;     H9-    C4-    C5-   H10
   126    105    106    127      9     0.00   0.50208   3 ;    H10-    C5-    C6-   H11
   126    105    106    128      9     0.00   0.50208   3 ;    H10-    C5-    C6-   H12
   126    105    106    129      9     0.00   0.50208   3 ;    H10-    C5-    C6-   H13
   126    105    107    130      9     0.00   0.50208   3 ;    H10-    C5-    C7-   H14
   126    105    107    131      9     0.00   0.50208   3 ;    H10-    C5-    C7-   H15
   130    107    108    132      9     0.00   0.50208   3 ;    H14-    C7-    C8-   H16
   131    107    108    132      9     0.00   0.50208   3 ;    H15-    C7-    C8-   H16
   132    108    109    133      9     0.00   0.50208   3 ;    H16-    C8-    C9-   H17
   132    108    109    134      9     0.00   0.50208   3 ;    H16-    C8-    C9-   H18
   132    108    109    135      9     0.00   0.50208   3 ;    H16-    C8-    C9-   H19
   132    108    110    136      9     0.00   0.50208   3 ;    H16-    C8-   C10-   H20
   132    108    110    137      9     0.00   0.50208   3 ;    H16-    C8-   C10-   H21
   136    110    111    138      9     0.00   0.50208   3 ;    H20-   C10-   C11-   H22
   137    110    111    138      9     0.00   0.50208   3 ;    H21-   C10-   C11-   H22
   138    111    112    139      9     0.00   0.50208   3 ;    H22-   C11-   C12-   H23
   138    111    112    140      9     0.00   0.50208   3 ;    H22-   C11-   C12-   H24
   138    111    112    141      9     0.00   0.50208   3 ;    H22-   C11-   C12-   H25
   138    111    113    142      9     0.00   0.50208   3 ;    H22-   C11-   C13-   H26
   138    111    113    143      9     0.00   0.50208   3 ;    H22-   C11-   C13-   H27
   142    113    114    144      9     0.00   0.50208   3 ;    H26-   C13-   C14-   H28
   143    113    114    144      9     0.00   0.50208   3 ;    H27-   C13-   C14-   H28
   144    114    115    145      9     0.00   0.50208   3 ;    H28-   C14-   C15-   H29
   144    114    115    146      9     0.00   0.50208   3 ;    H28-   C14-   C15-   H30
   144    114    115    147      9     0.00   0.50208   3 ;    H28-   C14-   C15-   H31
   144    114    116    148      9     0.00   0.50208   3 ;    H28-   C14-   C16-   H32
   144    114    116    149      9     0.00   0.50208   3 ;    H28-   C14-   C16-   H33
   144    114    116    150      9     0.00   0.50208   3 ;    H28-   C14-   C16-   H34
   151    152    153    171      9     0.00   0.54392   3 ;     C1-    C2-    C3-    H5
   151    152    153    172      9     0.00   0.54392   3 ;     C1-    C2-    C3-    H6
   151    152    153    173      9     0.00   0.54392   3 ;     C1-    C2-    C3-    H7
   151    152    154    155      9     0.00   2.17568   3 ;     C1-    C2-    C4-    C5
   151    152    154    174      9     0.00   0.54392   3 ;     C1-    C2-    C4-    H8
   151    152    154    175      9     0.00   0.54392   3 ;     C1-    C2-    C4-    H9
   152    154    155    156      9     0.00   2.17568   3 ;     C2-    C4-    C5-    C6
   152    154    155    157      9     0.00   2.17568   3 ;     C2-    C4-    C5-    C7
   152    154    155    176      9     0.00   0.54392   3 ;     C2-    C4-    C5-   H10
   153    152    151    167      9     0.00   0.54392   3 ;     C3-    C2-    C1-    H1
   153    152    151    168      9     0.00   0.54392   3 ;     C3-    C2-    C1-    H2
   153    152    151    169      9     0.00   0.54392   3 ;     C3-    C2-    C1-    H3
   153    152    154    155      9     0.00   2.17568   3 ;     C3-    C2-    C4-    C5
   153    152    154    174      9     0.00   0.54392   3 ;     C3-    C2-    C4-    H8
   153    152    154    175      9     0.00   0.54392   3 ;     C3-    C2-    C4-    H9
   154    152    151    167      9     0.00   0.54392   3 ;     C4-    C2-    C1-    H1
   154    152    151    168      9     0.00   0.54392   3 ;     C4-    C2-    C1-    H2
   154    152    151    169      9     0.00   0.54392   3 ;     C4-    C2-    C1-    H3
   154    152    153    171      9     0.00   0.54392   3 ;     C4-    C2-    C3-    H5
   154    152    153    172      9     0.00   0.54392   3 ;     C4-    C2-    C3-    H6
   154    152    153    173      9     0.00   0.54392   3 ;     C4-    C2-    C3-    H7
   154    155    156    177      9     0.00   0.54392   3 ;     C4-    C5-    C6-   H11
   154    155    156    178      9     0.00   0.54392   3 ;     C4-    C5-    C6-   H12
   154    155    156    179      9     0.00   0.54392   3 ;     C4-    C5-    C6-   H13
   154    155    157    158      9     0.00   2.17568   3 ;     C4-    C5-    C7-    C8
   154    155    157    180      9     0.00   0.54392   3 ;     C4-    C5-    C7-   H14
   154    155    157    181      9     0.00   0.54392   3 ;     C4-    C5-    C7-   H15
   155    154    152    170      9     0.00   0.54392   3 ;     C5-    C4-    C2-    H4
   155    157    158    159      9     0.00   2.17568   3 ;     C5-    C7-    C8-    C9
   155    157    158    160      9     0.00   2.17568   3 ;     C5-    C7-    C8-   C10
   155    157    158    182      9     0.00   0.54392   3 ;     C5-    C7-    C8-   H16
   156    155    154    174      9     0.00   0.54392   3 ;     C6-    C5-    C4-    H8
   156    155    154    175      9     0.00   0.54392   3 ;     C6-    C5-    C4-    H9
   156    155    157    158      9     0.00   2.17568   3 ;     C6-    C5-    C7-    C8
   156    155    157    180      9     0.00   0.54392   3 ;     C6-    C5-    C7-   H14
   156    155    157    181      9     0.00   0.54392   3 ;     C6-    C5-    C7-   H15
   157    155    154    174      9     0.00   0.54392   3 ;     C7-    C5-    C4-    H8
   157    155    154    175      9     0.00   0.54392   3 ;     C7-    C5-    C4-    H9
   157    155    156    177      9     0.00   0.54392   3 ;     C7-    C5-    C6-   H11
   157    155    156    178      9     0.00   0.54392   3 ;     C7-    C5-    C6-   H12
   157    155    156    179      9     0.00   0.54392   3 ;     C7-    C5-    C6-   H13
   157    158    159    183      9     0.00   0.54392   3 ;     C7-    C8-    C9-   H17
   157    158    159    184      9     0.00   0.54392   3 ;     C7-    C8-    C9-   H18
   157    158    159    185      9     0.00   0.54392   3 ;     C7-    C8-    C9-   H19
   157    158    160    161      9     0.00   2.17568   3 ;     C7-    C8-   C10-   C11
   157    158    160    186      9     0.00   0.54392   3 ;     C7-    C8-   C10-   H20
   157    158    160    187      9     0.00   0.54392   3 ;     C7-    C8-   C10-   H21
   158    157    155    176      9     0.00   0.54392   3 ;     C8-    C7-    C5-   H10
   158    160    161    162      9     0.00   2.17568   3 ;     C8-   C10-   C11-   C12
   158    160    161    163      9     0.00   2.17568   3 ;     C8-   C10-   C11-   C13
   158    160    161    188      9     0.00   0.54392   3 ;     C8-   C10-   C11-   H22
   159    158    157    180      9     0.00   0.54392   3 ;     C9-    C8-    C7-   H14
   159    158    157    181      9     0.00   0.54392   3 ;     C9-    C8-    C7-   H15
   159    158    160    161      9     0.00   2.17568   3 ;     C9-    C8-   C10-   C11
   159    158    160    186      9     0.00   0.54392   3 ;     C9-    C8-   C10-   H20
   159    158    160    187      9     0.00   0.54392   3 ;     C9-    C8-   C10-   H21
   160    158    157    180      9     0.00   0.54392   3 ;    C10-    C8-    C7-   H14
   160    158    157    181      9     0.00   0.54392   3 ;    C10-    C8-    C7-   H15
   160    158    159    183      9     0.00   0.54392   3 ;    C10-    C8-    C9-   H17
   160    158    159    184      9     0.00   0.54392   3 ;    C10-    C8-    C9-   H18
   160    158    159    185      9     0.00   0.54392   3 ;    C10-    C8-    C9-   H19
   160    161    162    189      9     0.00   0.54392   3 ;    C10-   C11-   C12-   H23
   160    161    162    190      9     0.00   0.54392   3 ;    C10-   C11-   C12-   H24
   160    161    162    191      9     0.00   0.54392   3 ;    C10-   C11-   C12-   H25
   160    161    163    164      9     0.00   2.17568   3 ;    C10-   C11-   C13-   C14
   160    161    163    192      9     0.00   0.54392   3 ;    C10-   C11-   C13-   H26
   160    161    163    193      9     0.00   0.54392   3 ;    C10-   C11-   C13-   H27
   161    160    158    182      9     0.00   0.54392   3 ;    C11-   C10-    C8-   H16
   161    163    164    165      9     0.00   2.17568   3 ;    C11-   C13-   C14-   C15
   161    163    164    166      9     0.00   2.17568   3 ;    C11-   C13-   C14-   C16
   161    163    164    194      9     0.00   0.54392   3 ;    C11-   C13-   C14-   H28
   162    161    160    186      9     0.00   0.54392   3 ;    C12-   C11-   C10-   H20
   162    161    160    187      9     0.00   0.54392   3 ;    C12-   C11-   C10-   H21
   162    161    163    164      9     0.00   2.17568   3 ;    C12-   C11-   C13-   C14
   162    161    163    192      9     0.00   0.54392   3 ;    C12-   C11-   C13-   H26
   162    161    163    193      9     0.00   0.54392   3 ;    C12-   C11-   C13-   H27
   163    161    160    186      9     0.00   0.54392   3 ;    C13-   C11-   C10-   H20
   163    161    160    187      9     0.00   0.54392   3 ;    C13-   C11-   C10-   H21
   163    161    162    189      9     0.00   0.54392   3 ;    C13-   C11-   C12-   H23
   163    161    162    190      9     0.00   0.54392   3 ;    C13-   C11-   C12-   H24
   163    161    162    191      9     0.00   0.54392   3 ;    C13-   C11-   C12-   H25
   163    164    165    195      9     0.00   0.54392   3 ;    C13-   C14-   C15-   H29
   163    164    165    196      9     0.00   0.54392   3 ;    C13-   C14-   C15-   H30
   163    164    165    197      9     0.00   0.54392   3 ;    C13-   C14-   C15-   H31
   163    164    166    198      9     0.00   0.54392   3 ;    C13-   C14-   C16-   H32
   163    164    166    199      9     0.00   0.54392   3 ;    C13-   C14-   C16-   H33
   163    164    166    200      9     0.00   0.54392   3 ;    C13-   C14-   C16-   H34
   164    163    161    188      9     0.00   0.54392   3 ;    C14-   C13-   C11-   H22
   165    164    163    192      9     0.00   0.54392   3 ;    C15-   C14-   C13-   H26
   165    164    163    193      9     0.00   0.54392   3 ;    C15-   C14-   C13-   H27
   165    164    166    198      9     0.00   0.54392   3 ;    C15-   C14-   C16-   H32
   165    164    166    199      9     0.00   0.54392   3 ;    C15-   C14-   C16-   H33
   165    164    166    200      9     0.00   0.54392   3 ;    C15-   C14-   C16-   H34
   166    164    163    192      9     0.00   0.54392   3 ;    C16-   C14-   C13-   H26
   166    164    163    193      9     0.00   0.54392   3 ;    C16-   C14-   C13-   H27
   166    164    165    195      9     0.00   0.54392   3 ;    C16-   C14-   C15-   H29
   166    164    165    196      9     0.00   0.54392   3 ;    C16-   C14-   C15-   H30
   166    164    165    197      9     0.00   0.54392   3 ;    C16-   C14-   C15-   H31
   167    151    152    170      9     0.00   0.50208   3 ;     H1-    C1-    C2-    H4
   168    151    152    170      9     0.00   0.50208   3 ;     H2-    C1-    C2-    H4
   169    151    152    170      9     0.00   0.50208   3 ;     H3-    C1-    C2-    H4
   170    152    153    171      9     0.00   0.50208   3 ;     H4-    C2-    C3-    H5
   170    152    153    172      9     0.00   0.50208   3 ;     H4-    C2-    C3-    H6
   170    152    153    173      9     0.00   0.50208   3 ;     H4-    C2-    C3-    H7
   170    152    154    174      9     0.00   0.50208   3 ;     H4-    C2-    C4-    H8
   170    152    154    175      9     0.00   0.50208   3 ;     H4-    C2-    C4-    H9
   174    154    155    176      9     0.00   0.50208   3 ;     H8-    C4-    C5-   H10
   175    154    155    176      9     0.00   0.50208   3 ;     H9-    C4-    C5-   H10
   176    155    156    177      9     0.00   0.50208   3 ;    H10-    C5-    C6-   H11
   176    155    156    178      9     0.00   0.50208   3 ;    H10-    C5-    C6-   H12
   176    155    156    179      9     0.00   0.50208   3 ;    H10-    C5-    C6-   H13
   176    155    157    180      9     0.00   0.50208   3 ;    H10-    C5-    C7-   H14
   176    155    157    181      9     0.00   0.50208   3 ;    H10-    C5-    C7-   H15
   180    157    158    182      9     0.00   0.50208   3 ;    H14-    C7-    C8-   H16
   181    157    158    182      9     0.00   0.50208   3 ;    H15-    C7-    C8-   H16
   182    158    159    183      9     0.00   0.50208   3 ;    H16-    C8-    C9-   H17
   182    158    159    184      9     0.00   0.50208   3 ;    H16-    C8-    C9-   H18
   182    158    159    185      9     0.00   0.50208   3 ;    H16-    C8-    C9-   H19
   182    158    160    186      9     0.00   0.50208   3 ;    H16-    C8-   C10-   H20
   182    158    160    187      9     0.00   0.50208   3 ;    H16-    C8-   C10-   H21
   186    160    161    188      9     0.00   0.50208   3 ;    H20-   C10-   C11-   H22
   187    160    161    188      9     0.00   0.50208   3 ;    H21-   C10-   C11-   H22
   188    161    162    189      9     0.00   0.50208   3 ;    H22-   C11-   C12-   H23
   188    161    162    190      9     0.00   0.50208   3 ;    H22-   C11-   C12-   H24
   188    161    162    191      9     0.00   0.50208   3 ;    H22-   C11-   C12-   H25
   188    161    163    192      9     0.00   0.50208   3 ;    H22-   C11-   C13-   H26
   188    161    163    193      9     0.00   0.50208   3 ;    H22-   C11-   C13-   H27
   192    163    164    194      9     0.00   0.50208   3 ;    H26-   C13-   C14-   H28
   193    163    164    194      9     0.00   0.50208   3 ;    H27-   C13-   C14-   H28
   194    164    165    195      9     0.00   0.50208   3 ;    H28-   C14-   C15-   H29
   194    164    165    196      9     0.00   0.50208   3 ;    H28-   C14-   C15-   H30
   194    164    165    197      9     0.00   0.50208   3 ;    H28-   C14-   C15-   H31
   194    164    166    198      9     0.00   0.50208   3 ;    H28-   C14-   C16-   H32
   194    164    166    199      9     0.00   0.50208   3 ;    H28-   C14-   C16-   H33
   194    164    166    200      9     0.00   0.50208   3 ;    H28-   C14-   C16-   H34
   201    202    203    221      9     0.00   0.54392   3 ;     C1-    C2-    C3-    H5
   201    202    203    222      9     0.00   0.54392   3 ;     C1-    C2-    C3-    H6
   201    202    203    223      9     0.00   0.54392   3 ;     C1-    C2-    C3-    H7
   201    202    204    205      9     0.00   2.17568   3 ;     C1-    C2-    C4-    C5
   201    202    204    224      9     0.00   0.54392   3 ;     C1-    C2-    C4-    H8
   201    202    204    225      9     0.00   0.54392   3 ;     C1-    C2-    C4-    H9
   202    204    205    206      9     0.00   2.17568   3 ;     C2-    C4-    C5-    C6
   202    204    205    207      9     0.00   2.17568   3 ;     C2-    C4-    C5-    C7
   202    204    205    226      9     0.00   0.54392   3 ;     C2-    C4-    C5-   H10
   203    202    201    217      9     0.00   0.54392   3 ;     C3-    C2-    C1-    H1
   203    202    201    218      9     0.00   0.54392   3 ;     C3-    C2-    C1-    H2
   203    202    201    219      9     0.00   0.54392   3 ;     C3-    C2-    C1-    H3
   203    202    204    205      9     0.00   2.17568   3 ;     C3-    C2-    C4-    C5
   203    202    204    224      9     0.00   0.54392   3 ;     C3-    C2-    C4-    H8
   203    202    204    225      9     0.00   0.54392   3 ;     C3-    C2-    C4-    H9
   204    202    201    217      9     0.00   0.54392   3 ;     C4-    C2-    C1-    H1
   204    202    201    218      9     0.00   0.54392   3 ;     C4-    C2-    C1-    H2
   204    202    201    219      9     0.00   0.54392   3 ;     C4-    C2-    C1-    H3
   204    202    203    221      9     0.00   0.54392   3 ;     C4-    C2-    C3-    H5
   204    202    203    222      9     0.00   0.54392   3 ;     C4-    C2-    C3-    H6
   204    202    203    223      9     0.00   0.54392   3 ;     C4-    C2-    C3-    H7
   204    205    206    227      9     0.00   0.54392   3 ;     C4-    C5-    C6-   H11
   204    205    206    228      9     0.00   0.54392   3 ;     C4-    C5-    C6-   H12
   204    205    206    229      9     0.00   0.54392   3 ;     C4-    C5-    C6-   H13
   204    205    207    208      9     0.00   2.17568   3 ;     C4-    C5-    C7-    C8
   204    205    207    230      9     0.00   0.54392   3 ;     C4-    C5-    C7-   H14
   204    205    207    231      9     0.00   0.54392   3 ;     C4-    C5-    C7-   H15
   205    204    202    220      9     0.00   0.54392   3 ;     C5-    C4-    C2-    H4
   205    207    208    209      9     0.00   2.17568   3 ;     C5-    C7-    C8-    C9
   205    207    208    210      9     0.00   2.17568   3 ;     C5-    C7-    C8-   C10
   205    207    208    232      9     0.00   0.54392   3 ;     C5-    C7-    C8-   H16
   206    205    204    224      9     0.00   0.54392   3 ;     C6-    C5-    C4-    H8
   206    205    204    225      9     0.00   0.54392   3 ;     C6-    C5-    C4-    H9
   206    205    207    208      9     0.00   2.17568   3 ;     C6-    C5-    C7-    C8
   206    205    207    230      9     0.00   0.54392   3 ;     C6-    C5-    C7-   H14
   206    205    207    231      9     0.00   0.54392   3 ;     C6-    C5-    C7-   H15
   207    205    204    224      9     0.00   0.54392   3 ;     C7-    C5-    C4-    H8
   207    205    204    225      9     0.00   0.54392   3 ;     C7-    C5-    C4-    H9
   207    205    206    227      9     0.00   0.54392   3 ;     C7-    C5-    C6-   H11
   207    205    206    228      9     0.00   0.54392   3 ;     C7-    C5-    C6-   H12
   207    205    206    229      9     0.00   0.54392   3 ;     C7-    C5-    C6-   H13
   207    208    209    233      9     0.00   0.54392   3 ;     C7-    C8-    C9-   H17
   207    208    209    234      9     0.00   0.54392   3 ;     C7-    C8-    C9-   H18
   207    208    209    235      9     0.00   0.54392   3 ;     C7-    C8-    C9-   H19
   207    208    210    211      9     0.00   2.17568   3 ;     C7-    C8-   C10-   C11
   207    208    210    236      9     0.00   0.54392   3 ;     C7-    C8-   C10-   H20
   207    208    210    237      9     0.00   0.54392   3 ;     C7-    C8-   C10-   H21
   208    207    205    226      9     0.00   0.54392   3 ;     C8-    C7-    C5-   H10
   208    210    211    212      9     0.00   2.17568   3 ;     C8-   C10-   C11-   C12
   208    210    211    213      9     0.00   2.17568   3 ;     C8-   C10-   C11-   C13
   208    210    211    238      9     0.00   0.54392   3 ;     C8-   C10-   C11-   H22
   209    208    207    230      9     0.00   0.54392   3 ;     C9-    C8-    C7-   H14
   209    208    207    231      9     0.00   0.54392   3 ;     C9-    C8-    C7-   H15
   209    208    210    211      9     0.00   2.17568   3 ;     C9-    C8-   C10-   C11
   209    208    210    236      9     0.00   0.54392   3 ;     C9-    C8-   C10-   H20
   209    208    210    237      9     0.00   0.54392   3 ;     C9-    C8-   C10-   H21
   210    208    207    230      9     0.00   0.54392   3 ;    C10-    C8-    C7-   H14
   210    208    207    231      9     0.00   0.54392   3 ;    C10-    C8-    C7-   H15
   210    208    209    233      9     0.00   0.54392   3 ;    C10-    C8-    C9-   H17
   210    208    209    234      9     0.00   0.54392   3 ;    C10-    C8-    C9-   H18
   210    208    209    235      9     0.00   0.54392   3 ;    C10-    C8-    C9-   H19
   210    211    212    239      9     0.00   0.54392   3 ;    C10-   C11-   C12-   H23
   210    211    212    240      9     0.00   0.54392   3 ;    C10-   C11-   C12-   H24
   210    211    212    241      9     0.00   0.54392   3 ;    C10-   C11-   C12-   H25
   210    211    213    214      9     0.00   2.17568   3 ;    C10-   C11-   C13-   C14
   210    211    213    242      9     0.00   0.54392   3 ;    C10-   C11-   C13-   H26
   210    211    213    243      9     0.00   0.54392   3 ;    C10-   C11-   C13-   H27
   211    210    208    232      9     0.00   0.54392   3 ;    C11-   C10-    C8-   H16
   211    213    214    215      9     0.00   2.17568   3 ;    C11-   C13-   C14-   C15
   211    213    214    216      9     0.00   2.17568   3 ;    C11-   C13-   C14-   C16
   211    213    214    244      9     0.00   0.54392   3 ;    C11-   C13-   C14-   H28
   212    211    210    236      9     0.00   0.54392   3 ;    C12-   C11-   C10-   H20
   212    211    210    237      9     0.00   0.54392   3 ;    C12-   C11-   C10-   H21
   212    211    213    214      9     0.00   2.17568   3 ;    C12-   C11-   C13-   C14
   212    211    213    242      9     0.00   0.54392   3 ;    C12-   C11-   C13-   H26
   212    211    213    243      9     0.00   0.54392   3 ;    C12-   C11-   C13-   H27
   213    211    210    236      9     0.00   0.54392   3 ;    C13-   C11-   C10-   H20
   213    211    210    237      9     0.00   0.54392   3 ;    C13-   C11-   C10-   H21
   213    211    212    239      9     0.00   0.54392   3 ;    C13-   C11-   C12-   H23
   213    211    212    240      9     0.00   0.54392   3 ;    C13-   C11-   C12-   H24
   213    211    212    241      9     0.00   0.54392   3 ;    C13-   C11-   C12-   H25
   213    214    215    245      9     0.00   0.54392   3 ;    C13-   C14-   C15-   H29
   213    214    215    246      9     0.00   0.54392   3 ;    C13-   C14-   C15-   H30
   213    214    215    247      9     0.00   0.54392   3 ;    C13-   C14-   C15-   H31
   213    214    216    248      9     0.00   0.54392   3 ;    C13-   C14-   C16-   H32
   213    214    216    249      9     0.00   0.54392   3 ;    C13-   C14-   C16-   H33
   213    214    216    250      9     0.00   0.54392   3 ;    C13-   C14-   C16-   H34
   214    213    211    238      9     0.00   0.54392   3 ;    C14-   C13-   C11-   H22
   215    214    213    242      9     0.00   0.54392   3 ;    C15-   C14-   C13-   H26
   215    214    213    243      9     0.00   0.54392   3 ;    C15-   C14-   C13-   H27
   215    214    216    248      9     0.00   0.54392   3 ;    C15-   C14-   C16-   H32
   215    214    216    249      9     0.00   0.54392   3 ;    C15-   C14-   C16-   H33
   215    214    216    250      9     0.00   0.54392   3 ;    C15-   C14-   C16-   H34
   216    214    213    242      9     0.00   0.54392   3 ;    C16-   C14-   C13-   H26
   216    214    213    243      9     0.00   0.54392   3 ;    C16-   C14-   C13-   H27
   216    214    215    245      9     0.00   0.54392   3 ;    C16-   C14-   C15-   H29
   216    214    215    246      9     0.00   0.54392   3 ;    C16-   C14-   C15-   H30
   216    214    215    247      9     0.00   0.54392   3 ;    C16-   C14-   C15-   H31
   217    201    202    220      9     0.00   0.50208   3 ;     H1-    C1-    C2-    H4
   218    201    202    220      9     0.00   0.50208   3 ;     H2-    C1-    C2-    H4
   219    201    202    220      9     0.00   0.50208   3 ;     H3-    C1-    C2-    H4
   220    202    203    221      9     0.00   0.50208   3 ;     H4-    C2-    C3-    H5
   220    202    203    222      9     0.00   0.50208   3 ;     H4-    C2-    C3-    H6
   220    202    203    223      9     0.00   0.50208   3 ;     H4-    C2-    C3-    H7
   220    202    204    224      9     0.00   0.50208   3 ;     H4-    C2-    C4-    H8
   220    202    204    225      9     0.00   0.50208   3 ;     H4-    C2-    C4-    H9
   224    204    205    226      9     0.00   0.50208   3 ;     H8-    C4-    C5-   H10
   225    204    205    226      9     0.00   0.50208   3 ;     H9-    C4-    C5-   H10
   226    205    206    227      9     0.00   0.50208   3 ;    H10-    C5-    C6-   H11
   226    205    206    228      9     0.00   0.50208   3 ;    H10-    C5-    C6-   H12
   226    205    206    229      9     0.00   0.50208   3 ;    H10-    C5-    C6-   H13
   226    205    207    230      9     0.00   0.50208   3 ;    H10-    C5-    C7-   H14
   226    205    207    231      9     0.00   0.50208   3 ;    H10-    C5-    C7-   H15
   230    207    208    232      9     0.00   0.50208   3 ;    H14-    C7-    C8-   H16
   231    207    208    232      9     0.00   0.50208   3 ;    H15-    C7-    C8-   H16
   232    208    209    233      9     0.00   0.50208   3 ;    H16-    C8-    C9-   H17
   232    208    209    234      9     0.00   0.50208   3 ;    H16-    C8-    C9-   H18
   232    208    209    235      9     0.00   0.50208   3 ;    H16-    C8-    C9-   H19
   232    208    210    236      9     0.00   0.50208   3 ;    H16-    C8-   C10-   H20
   232    208    210    237      9     0.00   0.50208   3 ;    H16-    C8-   C10-   H21
   236    210    211    238      9     0.00   0.50208   3 ;    H20-   C10-   C11-   H22
   237    210    211    238      9     0.00   0.50208   3 ;    H21-   C10-   C11-   H22
   238    211    212    239      9     0.00   0.50208   3 ;    H22-   C11-   C12-   H23
   238    211    212    240      9     0.00   0.50208   3 ;    H22-   C11-   C12-   H24
   238    211    212    241      9     0.00   0.50208   3 ;    H22-   C11-   C12-   H25
   238    211    213    242      9     0.00   0.50208   3 ;    H22-   C11-   C13-   H26
   238    211    213    243      9     0.00   0.50208   3 ;    H22-   C11-   C13-   H27
   242    213    214    244      9     0.00   0.50208   3 ;    H26-   C13-   C14-   H28
   243    213    214    244      9     0.00   0.50208   3 ;    H27-   C13-   C14-   H28
   244    214    215    245      9     0.00   0.50208   3 ;    H28-   C14-   C15-   H29
   244    214    215    246      9     0.00   0.50208   3 ;    H28-   C14-   C15-   H30
   244    214    215    247      9     0.00   0.50208   3 ;    H28-   C14-   C15-   H31
   244    214    216    248      9     0.00   0.50208   3 ;    H28-   C14-   C16-   H32
   244    214    216    249      9     0.00   0.50208   3 ;    H28-   C14-   C16-   H33
   244    214    216    250      9     0.00   0.50208   3 ;    H28-   C14-   C16-   H34
   251    252    253    271      9     0.00   0.54392   3 ;     C1-    C2-    C3-    H5
   251    252    253    272      9     0.00   0.54392   3 ;     C1-    C2-    C3-    H6
   251    252    253    273      9     0.00   0.54392   3 ;     C1-    C2-    C3-    H7
   251    252    254    255      9     0.00   2.17568   3 ;     C1-    C2-    C4-    C5
   251    252    254    274      9     0.00   0.54392   3 ;     C1-    C2-    C4-    H8
   251    252    254    275      9     0.00   0.54392   3 ;     C1-    C2-    C4-    H9
   252    254    255    256      9     0.00   2.17568   3 ;     C2-    C4-    C5-    C6
   252    254    255    257      9     0.00   2.17568   3 ;     C2-    C4-    C5-    C7
   252    254    255    276      9     0.00   0.54392   3 ;     C2-    C4-    C5-   H10
   253    252    251    267      9     0.00   0.54392   3 ;     C3-    C2-    C1-    H1
   253    252    251    268      9     0.00   0.54392   3 ;     C3-    C2-    C1-    H2
   253    252    251    269      9     0.00   0.54392   3 ;     C3-    C2-    C1-    H3
   253    252    254    255      9     0.00   2.17568   3 ;     C3-    C2-    C4-    C5
   253    252    254    274      9     0.00   0.54392   3 ;     C3-    C2-    C4-    H8
   253    252    254    275      9     0.00   0.54392   3 ;     C3-    C2-    C4-    H9
   254    252    251    267      9     0.00   0.54392   3 ;     C4-    C2-    C1-    H1
   254    252    251    268      9     0.00   0.54392   3 ;     C4-    C2-    C1-    H2
   254    252    251    269      9     0.00   0.54392   3 ;     C4-    C2-    C1-    H3
   254    252    253    271      9     0.00   0.54392   3 ;     C4-    C2-    C3-    H5
   254    252    253    272      9     0.00   0.54392   3 ;     C4-    C2-    C3-    H6
   254    252    253    273      9     0.00   0.54392   3 ;     C4-    C2-    C3-    H7
   254    255    256    277      9     0.00   0.54392   3 ;     C4-    C5-    C6-   H11
   254    255    256    278      9     0.00   0.54392   3 ;     C4-    C5-    C6-   H12
   254    255    256    279      9     0.00   0.54392   3 ;     C4-    C5-    C6-   H13
   254    255    257    258      9     0.00   2.17568   3 ;     C4-    C5-    C7-    C8
   254    255    257    280      9     0.00   0.54392   3 ;     C4-    C5-    C7-   H14
   254    255    257    281      9     0.00   0.54392   3 ;     C4-    C5-    C7-   H15
   255    254    252    270      9     0.00   0.54392   3 ;     C5-    C4-    C2-    H4
   255    257    258    259      9     0.00   2.17568   3 ;     C5-    C7-    C8-    C9
   255    257    258    260      9     0.00   2.17568   3 ;     C5-    C7-    C8-   C10
   255    257    258    282      9     0.00   0.54392   3 ;     C5-    C7-    C8-   H16
   256    255    254    274      9     0.00   0.54392   3 ;     C6-    C5-    C4-    H8
   256    255    254    275      9     0.00   0.54392   3 ;     C6-    C5-    C4-    H9
   256    255    257    258      9     0.00   2.17568   3 ;     C6-    C5-    C7-    C8
   256    255    257    280      9     0.00   0.54392   3 ;     C6-    C5-    C7-   H14
   256    255    257    281      9     0.00   0.54392   3 ;     C6-    C5-    C7-   H15
   257    255    254    274      9     0.00   0.54392   3 ;     C7-    C5-    C4-    H8
   257    255    254    275      9     0.00   0.54392   3 ;     C7-    C5-    C4-    H9
   257    255    256    277      9     0.00   0.54392   3 ;     C7-    C5-    C6-   H11
   257    255    256    278      9     0.00   0.54392   3 ;     C7-    C5-    C6-   H12
   257    255    256    279      9     0.00   0.54392   3 ;     C7-    C5-    C6-   H13
   257    258    259    283      9     0.00   0.54392   3 ;     C7-    C8-    C9-   H17
   257    258    259    284      9     0.00   0.54392   3 ;     C7-    C8-    C9-   H18
   257    258    259    285      9     0.00   0.54392   3 ;     C7-    C8-    C9-   H19
   257    258    260    261      9     0.00   2.17568   3 ;     C7-    C8-   C10-   C11
   257    258    260    286      9     0.00   0.54392   3 ;     C7-    C8-   C10-   H20
   257    258    260    287      9     0.00   0.54392   3 ;     C7-    C8-   C10-   H21
   258    257    255    276      9     0.00   0.54392   3 ;     C8-    C7-    C5-   H10
   258    260    261    262      9     0.00   2.17568   3 ;     C8-   C10-   C11-   C12
   258    260    261    263      9     0.00   2.17568   3 ;     C8-   C10-   C11-   C13
   258    260    261    288      9     0.00   0.54392   3 ;     C8-   C10-   C11-   H22
   259    258    257    280      9     0.00   0.54392   3 ;     C9-    C8-    C7-   H14
   259    258    257    281      9     0.00   0.54392   3 ;     C9-    C8-    C7-   H15
   259    258    260    261      9     0.00   2.17568   3 ;     C9-    C8-   C10-   C11
   259    258    260    286      9     0.00   0.54392   3 ;     C9-    C8-   C10-   H20
   259    258    260    287      9     0.00   0.54392   3 ;     C9-    C8-   C10-   H21
   260    258    257    280      9     0.00   0.54392   3 ;    C10-    C8-    C7-   H14
   260    258    257    281      9     0.00   0.54392   3 ;    C10-    C8-    C7-   H15
   260    258    259    283      9     0.00   0.54392   3 ;    C10-    C8-    C9-   H17
   260    258    259    284      9     0.00   0.54392   3 ;    C10-    C8-    C9-   H18
   260    258    259    285      9     0.00   0.54392   3 ;    C10-    C8-    C9-   H19
   260    261    262    289      9     0.00   0.54392   3 ;    C10-   C11-   C12-   H23
   260    261    262    290      9     0.00   0.54392   3 ;    C10-   C11-   C12-   H24
   260    261    262    291      9     0.00   0.54392   3 ;    C10-   C11-   C12-   H25
   260    261    263    264      9     0.00   2.17568   3 ;    C10-   C11-   C13-   C14
   260    261    263    292      9     0.00   0.54392   3 ;    C10-   C11-   C13-   H26
   260    261    263    293      9     0.00   0.54392   3 ;    C10-   C11-   C13-   H27
   261    260    258    282      9     0.00   0.54392   3 ;    C11-   C10-    C8-   H16
   261    263    264    265      9     0.00   2.17568   3 ;    C11-   C13-   C14-   C15
   261    263    264    266      9     0.00   2.17568   3 ;    C11-   C13-   C14-   C16
   261    263    264    294      9     0.00   0.54392   3 ;    C11-   C13-   C14-   H28
   262    261    260    286      9     0.00   0.54392   3 ;    C12-   C11-   C10-   H20
   262    261    260    287      9     0.00   0.54392   3 ;    C12-   C11-   C10-   H21
   262    261    263    264      9     0.00   2.17568   3 ;    C12-   C11-   C13-   C14
   262    261    263    292      9     0.00   0.54392   3 ;    C12-   C11-   C13-   H26
   262    261    263    293      9     0.00   0.54392   3 ;    C12-   C11-   C13-   H27
   263    261    260    286      9     0.00   0.54392   3 ;    C13-   C11-   C10-   H20
   263    261    260    287      9     0.00   0.54392   3 ;    C13-   C11-   C10-   H21
   263    261    262    289      9     0.00   0.54392   3 ;    C13-   C11-   C12-   H23
   263    261    262    290      9     0.00   0.54392   3 ;    C13-   C11-   C12-   H24
   263    261    262    291      9     0.00   0.54392   3 ;    C13-   C11-   C12-   H25
   263    264    265    295      9     0.00   0.54392   3 ;    C13-   C14-   C15-   H29
   263    264    265    296      9     0.00   0.54392   3 ;    C13-   C14-   C15-   H30
   263    264    265    297      9     0.00   0.54392   3 ;    C13-   C14-   C15-   H31
   263    264    266    298      9     0.00   0.54392   3 ;    C13-   C14-   C16-   H32
   263    264    266    299      9     0.00   0.54392   3 ;    C13-   C14-   C16-   H33
   263    264    266    300      9     0.00   0.54392   3 ;    C13-   C14-   C16-   H34
   264    263    261    288      9     0.00   0.54392   3 ;    C14-   C13-   C11-   H22
   265    264    263    292      9     0.00   0.54392   3 ;    C15-   C14-   C13-   H26
   265    264    263    293      9     0.00   0.54392   3 ;    C15-   C14-   C13-   H27
   265    264    266    298      9     0.00   0.54392   3 ;    C15-   C14-   C16-   H32
   265    264    266    299      9     0.00   0.54392   3 ;    C15-   C14-   C16-   H33
   265    264    266    300      9     0.00   0.54392   3 ;    C15-   C14-   C16-   H34
   266    264    263    292      9     0.00   0.54392   3 ;    C16-   C14-   C13-   H26
   266    264    263    293      9     0.00   0.54392   3 ;    C16-   C14-   C13-   H27
   266    264    265    295      9     0.00   0.54392   3 ;    C16-   C14-   C15-   H29
   266    264    265    296      9     0.00   0.54392   3 ;    C16-   C14-   C15-   H30
   266    264    265    297      9     0.00   0.54392   3 ;    C16-   C14-   C15-   H31
   267    251    252    270      9     0.00   0.50208   3 ;     H1-    C1-    C2-    H4
   268    251    252    270      9     0.00   0.50208   3 ;     H2-    C1-    C2-    H4
   269    251    252    270      9     0.00   0.50208   3 ;     H3-    C1-    C2-    H4
   270    252    253    271      9     0.00   0.50208   3 ;     H4-    C2-    C3-    H5
   270    252    253    272      9     0.00   0.50208   3 ;     H4-    C2-    C3-    H6
   270    252    253    273      9     0.00   0.50208   3 ;     H4-    C2-    C3-    H7
   270    252    254    274      9     0.00   0.50208   3 ;     H4-    C2-    C4-    H8
   270    252    254    275      9     0.00   0.50208   3 ;     H4-    C2-    C4-    H9
   274    254    255    276      9     0.00   0.50208   3 ;     H8-    C4-    C5-   H10
   275    254    255    276      9     0.00   0.50208   3 ;     H9-    C4-    C5-   H10
   276    255    256    277      9     0.00   0.50208   3 ;    H10-    C5-    C6-   H11
   276    255    256    278      9     0.00   0.50208   3 ;    H10-    C5-    C6-   H12
   276    255    256    279      9     0.00   0.50208   3 ;    H10-    C5-    C6-   H13
   276    255    257    280      9     0.00   0.50208   3 ;    H10-    C5-    C7-   H14
   276    255    257    281      9     0.00   0.50208   3 ;    H10-    C5-    C7-   H15
   280    257    258    282      9     0.00   0.50208   3 ;    H14-    C7-    C8-   H16
   281    257    258    282      9     0.00   0.50208   3 ;    H15-    C7-    C8-   H16
   282    258    259    283      9     0.00   0.50208   3 ;    H16-    C8-    C9-   H17
   282    258    259    284      9     0.00   0.50208   3 ;    H16-    C8-    C9-   H18
   282    258    259    285      9     0.00   0.50208   3 ;    H16-    C8-    C9-   H19
   282    258    260    286      9     0.00   0.50208   3 ;    H16-    C8-   C10-   H20
   282    258    260    287      9     0.00   0.50208   3 ;    H16-    C8-   C10-   H21
   286    260    261    288      9     0.00   0.50208   3 ;    H20-   C10-   C11-   H22
   287    260    261    288      9     0.00   0.50208   3 ;    H21-   C10-   C11-   H22
   288    261    262    289      9     0.00   0.50208   3 ;    H22-   C11-   C12-   H23
   288    261    262    290      9     0.00   0.50208   3 ;    H22-   C11-   C12-   H24
   288    261    262    291      9     0.00   0.50208   3 ;    H22-   C11-   C12-   H25
   288    261    263    292      9     0.00   0.50208   3 ;    H22-   C11-   C13-   H26
   288    261    263    293      9     0.00   0.50208   3 ;    H22-   C11-   C13-   H27
   292    263    264    294      9     0.00   0.50208   3 ;    H26-   C13-   C14-   H28
   293    263    264    294      9     0.00   0.50208   3 ;    H27-   C13-   C14-   H28
   294    264    265    295      9     0.00   0.50208   3 ;    H28-   C14-   C15-   H29
   294    264    265    296      9     0.00   0.50208   3 ;    H28-   C14-   C15-   H30
   294    264    265    297      9     0.00   0.50208   3 ;    H28-   C14-   C15-   H31
   294    264    266    298      9     0.00   0.50208   3 ;    H28-   C14-   C16-   H32
   294    264    266    299      9     0.00   0.50208   3 ;    H28-   C14-   C16-   H33
   294    264    266    300      9     0.00   0.50208   3 ;    H28-   C14-   C16-   H34
   301    302    303    321      9     0.00   0.54392   3 ;     C1-    C2-    C3-    H5
   301    302    303    322      9     0.00   0.54392   3 ;     C1-    C2-    C3-    H6
   301    302    303    323      9     0.00   0.54392   3 ;     C1-    C2-    C3-    H7
   301    302    304    305      9     0.00   2.17568   3 ;     C1-    C2-    C4-    C5
   301    302    304    324      9     0.00   0.54392   3 ;     C1-    C2-    C4-    H8
   301    302    304    325      9     0.00   0.54392   3 ;     C1-    C2-    C4-    H9
   302    304    305    306      9     0.00   2.17568   3 ;     C2-    C4-    C5-    C6
   302    304    305    307      9     0.00   2.17568   3 ;     C2-    C4-    C5-    C7
   302    304    305    326      9     0.00   0.54392   3 ;     C2-    C4-    C5-   H10
   303    302    301    317      9     0.00   0.54392   3 ;     C3-    C2-    C1-    H1
   303    302    301    318      9     0.00   0.54392   3 ;     C3-    C2-    C1-    H2
   303    302    301    319      9     0.00   0.54392   3 ;     C3-    C2-    C1-    H3
   303    302    304    305      9     0.00   2.17568   3 ;     C3-    C2-    C4-    C5
   303    302    304    324      9     0.00   0.54392   3 ;     C3-    C2-    C4-    H8
   303    302    304    325      9     0.00   0.54392   3 ;     C3-    C2-    C4-    H9
   304    302    301    317      9     0.00   0.54392   3 ;     C4-    C2-    C1-    H1
   304    302    301    318      9     0.00   0.54392   3 ;     C4-    C2-    C1-    H2
   304    302    301    319      9     0.00   0.54392   3 ;     C4-    C2-    C1-    H3
   304    302    303    321      9     0.00   0.54392   3 ;     C4-    C2-    C3-    H5
   304    302    303    322      9     0.00   0.54392   3 ;     C4-    C2-    C3-    H6
   304    302    303    323      9     0.00   0.54392   3 ;     C4-    C2-    C3-    H7
   304    305    306    327      9     0.00   0.54392   3 ;     C4-    C5-    C6-   H11
   304    305    306    328      9     0.00   0.54392   3 ;     C4-    C5-    C6-   H12
   304    305    306    329      9     0.00   0.54392   3 ;     C4-    C5-    C6-   H13
   304    305    307    308      9     0.00   2.17568   3 ;     C4-    C5-    C7-    C8
   304    305    307    330      9     0.00   0.54392   3 ;     C4-    C5-    C7-   H14
   304    305    307    331      9     0.00   0.54392   3 ;     C4-    C5-    C7-   H15
   305    304    302    320      9     0.00   0.54392   3 ;     C5-    C4-    C2-    H4
   305    307    308    309      9     0.00   2.17568   3 ;     C5-    C7-    C8-    C9
   305    307    308    310      9     0.00   2.17568   3 ;     C5-    C7-    C8-   C10
   305    307    308    332      9     0.00   0.54392   3 ;     C5-    C7-    C8-   H16
   306    305    304    324      9     0.00   0.54392   3 ;     C6-    C5-    C4-    H8
   306    305    304    325      9     0.00   0.54392   3 ;     C6-    C5-    C4-    H9
   306    305    307    308      9     0.00   2.17568   3 ;     C6-    C5-    C7-    C8
   306    305    307    330      9     0.00   0.54392   3 ;     C6-    C5-    C7-   H14
   306    305    307    331      9     0.00   0.54392   3 ;     C6-    C5-    C7-   H15
   307    305    304    324      9     0.00   0.54392   3 ;     C7-    C5-    C4-    H8
   307    305    304    325      9     0.00   0.54392   3 ;     C7-    C5-    C4-    H9
   307    305    306    327      9     0.00   0.54392   3 ;     C7-    C5-    C6-   H11
   307    305    306    328      9     0.00   0.54392   3 ;     C7-    C5-    C6-   H12
   307    305    306    329      9     0.00   0.54392   3 ;     C7-    C5-    C6-   H13
   307    308    309    333      9     0.00   0.54392   3 ;     C7-    C8-    C9-   H17
   307    308    309    334      9     0.00   0.54392   3 ;     C7-    C8-    C9-   H18
   307    308    309    335      9     0.00   0.54392   3 ;     C7-    C8-    C9-   H19
   307    308    310    311      9     0.00   2.17568   3 ;     C7-    C8-   C10-   C11
   307    308    310    336      9     0.00   0.54392   3 ;     C7-    C8-   C10-   H20
   307    308    310    337      9     0.00   0.54392   3 ;     C7-    C8-   C10-   H21
   308    307    305    326      9     0.00   0.54392   3 ;     C8-    C7-    C5-   H10
   308    310    311    312      9     0.00   2.17568   3 ;     C8-   C10-   C11-   C12
   308    310    311    313      9     0.00   2.17568   3 ;     C8-   C10-   C11-   C13
   308    310    311    338      9     0.00   0.54392   3 ;     C8-   C10-   C11-   H22
   309    308    307    330      9     0.00   0.54392   3 ;     C9-    C8-    C7-   H14
   309    308    307    331      9     0.00   0.54392   3 ;     C9-    C8-    C7-   H15
   309    308    310    311      9     0.00   2.17568   3 ;     C9-    C8-   C10-   C11
   309    308    310    336      9     0.00   0.54392   3 ;     C9-    C8-   C10-   H20
   309    308    310    337      9     0.00   0.54392   3 ;     C9-    C8-   C10-   H21
   310    308    307    330      9     0.00   0.54392   3 ;    C10-    C8-    C7-   H14
   310    308    307    331      9     0.00   0.54392   3 ;    C10-    C8-    C7-   H15
   310    308    309    333      9     0.00   0.54392   3 ;    C10-    C8-    C9-   H17
   310    308    309    334      9     0.00   0.54392   3 ;    C10-    C8-    C9-   H18
   310    308    309    335      9     0.00   0.54392   3 ;    C10-    C8-    C9-   H19
   310    311    312    339      9     0.00   0.54392   3 ;    C10-   C11-   C12-   H23
   310    311    312    340      9     0.00   0.54392   3 ;    C10-   C11-   C12-   H24
   310    311    312    341      9     0.00   0.54392   3 ;    C10-   C11-   C12-   H25
   310    311    313    314      9     0.00   2.17568   3 ;    C10-   C11-   C13-   C14
   310    311    313    342      9     0.00   0.54392   3 ;    C10-   C11-   C13-   H26
   310    311    313    343      9     0.00   0.54392   3 ;    C10-   C11-   C13-   H27
   311    310    308    332      9     0.00   0.54392   3 ;    C11-   C10-    C8-   H16
   311    313    314    315      9     0.00   2.17568   3 ;    C11-   C13-   C14-   C15
   311    313    314    316      9     0.00   2.17568   3 ;    C11-   C13-   C14-   C16
   311    313    314    344      9     0.00   0.54392   3 ;    C11-   C13-   C14-   H28
   312    311    310    336      9     0.00   0.54392   3 ;    C12-   C11-   C10-   H20
   312    311    310    337      9     0.00   0.54392   3 ;    C12-   C11-   C10-   H21
   312    311    313    314      9     0.00   2.17568   3 ;    C12-   C11-   C13-   C14
   312    311    313    342      9     0.00   0.54392   3 ;    C12-   C11-   C13-   H26
   312    311    313    343      9     0.00   0.54392   3 ;    C12-   C11-   C13-   H27
   313    311    310    336      9     0.00   0.54392   3 ;    C13-   C11-   C10-   H20
   313    311    310    337      9     0.00   0.54392   3 ;    C13-   C11-   C10-   H21
   313    311    312    339      9     0.00   0.54392   3 ;    C13-   C11-   C12-   H23
   313    311    312    340      9     0.00   0.54392   3 ;    C13-   C11-   C12-   H24
   313    311    312    341      9     0.00   0.54392   3 ;    C13-   C11-   C12-   H25
   313    314    315    345      9     0.00   0.54392   3 ;    C13-   C14-   C15-   H29
   313    314    315    346      9     0.00   0.54392   3 ;    C13-   C14-   C15-   H30
   313    314    315    347      9     0.00   0.54392   3 ;    C13-   C14-   C15-   H31
   313    314    316    348      9     0.00   0.54392   3 ;    C13-   C14-   C16-   H32
   313    314    316    349      9     0.00   0.54392   3 ;    C13-   C14-   C16-   H33
   313    314    316    350      9     0.00   0.54392   3 ;    C13-   C14-   C16-   H34
   314    313    311    338      9     0.00   0.54392   3 ;    C14-   C13-   C11-   H22
   315    314    313    342      9     0.00   0.54392   3 ;    C15-   C14-   C13-   H26
   315    314    313    343      9     0.00   0.54392   3 ;    C15-   C14-   C13-   H27
   315    314    316    348      9     0.00   0.54392   3 ;    C15-   C14-   C16-   H32
   315    314    316    349      9     0.00   0.54392   3 ;    C15-   C14-   C16-   H33
   315    314    316    350      9     0.00   0.54392   3 ;    C15-   C14-   C16-   H34
   316    314    313    342      9     0.00   0.54392   3 ;    C16-   C14-   C13-   H26
   316    314    313    343      9     0.00   0.54392   3 ;    C16-   C14-   C13-   H27
   316    314    315    345      9     0.00   0.54392   3 ;    C16-   C14-   C15-   H29
   316    314    315    346      9     0.00   0.54392   3 ;    C16-   C14-   C15-   H30
   316    314    315    347      9     0.00   0.54392   3 ;    C16-   C14-   C15-   H31
   317    301    302    320      9     0.00   0.50208   3 ;     H1-    C1-    C2-    H4
   318    301    302    320      9     0.00   0.50208   3 ;     H2-    C1-    C2-    H4
   319    301    302    320      9     0.00   0.50208   3 ;     H3-    C1-    C2-    H4
   320    302    303    321      9     0.00   0.50208   3 ;     H4-    C2-    C3-    H5
   320    302    303    322      9     0.00   0.50208   3 ;     H4-    C2-    C3-    H6
   320    302    303    323      9     0.00   0.50208   3 ;     H4-    C2-    C3-    H7
   320    302    304    324      9     0.00   0.50208   3 ;     H4-    C2-    C4-    H8
   320    302    304    325      9     0.00   0.50208   3 ;     H4-    C2-    C4-    H9
   324    304    305    326      9     0.00   0.50208   3 ;     H8-    C4-    C5-   H10
   325    304    305    326      9     0.00   0.50208   3 ;     H9-    C4-    C5-   H10
   326    305    306    327      9     0.00   0.50208   3 ;    H10-    C5-    C6-   H11
   326    305    306    328      9     0.00   0.50208   3 ;    H10-    C5-    C6-   H12
   326    305    306    329      9     0.00   0.50208   3 ;    H10-    C5-    C6-   H13
   326    305    307    330      9     0.00   0.50208   3 ;    H10-    C5-    C7-   H14
   326    305    307    331      9     0.00   0.50208   3 ;    H10-    C5-    C7-   H15
   330    307    308    332      9     0.00   0.50208   3 ;    H14-    C7-    C8-   H16
   331    307    308    332      9     0.00   0.50208   3 ;    H15-    C7-    C8-   H16
   332    308    309    333      9     0.00   0.50208   3 ;    H16-    C8-    C9-   H17
   332    308    309    334      9     0.00   0.50208   3 ;    H16-    C8-    C9-   H18
   332    308    309    335      9     0.00   0.50208   3 ;    H16-    C8-    C9-   H19
   332    308    310    336      9     0.00   0.50208   3 ;    H16-    C8-   C10-   H20
   332    308    310    337      9     0.00   0.50208   3 ;    H16-    C8-   C10-   H21
   336    310    311    338      9     0.00   0.50208   3 ;    H20-   C10-   C11-   H22
   337    310    311    338      9     0.00   0.50208   3 ;    H21-   C10-   C11-   H22
   338    311    312    339      9     0.00   0.50208   3 ;    H22-   C11-   C12-   H23
   338    311    312    340      9     0.00   0.50208   3 ;    H22-   C11-   C12-   H24
   338    311    312    341      9     0.00   0.50208   3 ;    H22-   C11-   C12-   H25
   338    311    313    342      9     0.00   0.50208   3 ;    H22-   C11-   C13-   H26
   338    311    313    343      9     0.00   0.50208   3 ;    H22-   C11-   C13-   H27
   342    313    314    344      9     0.00   0.50208   3 ;    H26-   C13-   C14-   H28
   343    313    314    344      9     0.00   0.50208   3 ;    H27-   C13-   C14-   H28
   344    314    315    345      9     0.00   0.50208   3 ;    H28-   C14-   C15-   H29
   344    314    315    346      9     0.00   0.50208   3 ;    H28-   C14-   C15-   H30
   344    314    315    347      9     0.00   0.50208   3 ;    H28-   C14-   C15-   H31
   344    314    316    348      9     0.00   0.50208   3 ;    H28-   C14-   C16-   H32
   344    314    316    349      9     0.00   0.50208   3 ;    H28-   C14-   C16-   H33
   344    314    316    350      9     0.00   0.50208   3 ;    H28-   C14-   C16-   H34
   351    352    353    371      9     0.00   0.54392   3 ;     C1-    C2-    C3-    H5
   351    352    353    372      9     0.00   0.54392   3 ;     C1-    C2-    C3-    H6
   351    352    353    373      9     0.00   0.54392   3 ;     C1-    C2-    C3-    H7
   351    352    354    355      9     0.00   2.17568   3 ;     C1-    C2-    C4-    C5
   351    352    354    374      9     0.00   0.54392   3 ;     C1-    C2-    C4-    H8
   351    352    354    375      9     0.00   0.54392   3 ;     C1-    C2-    C4-    H9
   352    354    355    356      9     0.00   2.17568   3 ;     C2-    C4-    C5-    C6
   352    354    355    357      9     0.00   2.17568   3 ;     C2-    C4-    C5-    C7
   352    354    355    376      9     0.00   0.54392   3 ;     C2-    C4-    C5-   H10
   353    352    351    367      9     0.00   0.54392   3 ;     C3-    C2-    C1-    H1
   353    352    351    368      9     0.00   0.54392   3 ;     C3-    C2-    C1-    H2
   353    352    351    369      9     0.00   0.54392   3 ;     C3-    C2-    C1-    H3
   353    352    354    355      9     0.00   2.17568   3 ;     C3-    C2-    C4-    C5
   353    352    354    374      9     0.00   0.54392   3 ;     C3-    C2-    C4-    H8
   353    352    354    375      9     0.00   0.54392   3 ;     C3-    C2-    C4-    H9
   354    352    351    367      9     0.00   0.54392   3 ;     C4-    C2-    C1-    H1
   354    352    351    368      9     0.00   0.54392   3 ;     C4-    C2-    C1-    H2
   354    352    351    369      9     0.00   0.54392   3 ;     C4-    C2-    C1-    H3
   354    352    353    371      9     0.00   0.54392   3 ;     C4-    C2-    C3-    H5
   354    352    353    372      9     0.00   0.54392   3 ;     C4-    C2-    C3-    H6
   354    352    353    373      9     0.00   0.54392   3 ;     C4-    C2-    C3-    H7
   354    355    356    377      9     0.00   0.54392   3 ;     C4-    C5-    C6-   H11
   354    355    356    378      9     0.00   0.54392   3 ;     C4-    C5-    C6-   H12
   354    355    356    379      9     0.00   0.54392   3 ;     C4-    C5-    C6-   H13
   354    355    357    358      9     0.00   2.17568   3 ;     C4-    C5-    C7-    C8
   354    355    357    380      9     0.00   0.54392   3 ;     C4-    C5-    C7-   H14
   354    355    357    381      9     0.00   0.54392   3 ;     C4-    C5-    C7-   H15
   355    354    352    370      9     0.00   0.54392   3 ;     C5-    C4-    C2-    H4
   355    357    358    359      9     0.00   2.17568   3 ;     C5-    C7-    C8-    C9
   355    357    358    360      9     0.00   2.17568   3 ;     C5-    C7-    C8-   C10
   355    357    358    382      9     0.00   0.54392   3 ;     C5-    C7-    C8-   H16
   356    355    354    374      9     0.00   0.54392   3 ;     C6-    C5-    C4-    H8
   356    355    354    375      9     0.00   0.54392   3 ;     C6-    C5-    C4-    H9
   356    355    357    358      9     0.00   2.17568   3 ;     C6-    C5-    C7-    C8
   356    355    357    380      9     0.00   0.54392   3 ;     C6-    C5-    C7-   H14
   356    355    357    381      9     0.00   0.54392   3 ;     C6-    C5-    C7-   H15
   357    355    354    374      9     0.00   0.54392   3 ;     C7-    C5-    C4-    H8
   357    355    354    375      9     0.00   0.54392   3 ;     C7-    C5-    C4-    H9
   357    355    356    377      9     0.00   0.54392   3 ;     C7-    C5-    C6-   H11
   357    355    356    378      9     0.00   0.54392   3 ;     C7-    C5-    C6-   H12
   357    355    356    379      9     0.00   0.54392   3 ;     C7-    C5-    C6-   H13
   357    358    359    383      9     0.00   0.54392   3 ;     C7-    C8-    C9-   H17
   357    358    359    384      9     0.00   0.54392   3 ;     C7-    C8-    C9-   H18
   357    358    359    385      9     0.00   0.54392   3 ;     C7-    C8-    C9-   H19
   357    358    360    361      9     0.00   2.17568   3 ;     C7-    C8-   C10-   C11
   357    358    360    386      9     0.00   0.54392   3 ;     C7-    C8-   C10-   H20
   357    358    360    387      9     0.00   0.54392   3 ;     C7-    C8-   C10-   H21
   358    357    355    376      9     0.00   0.54392   3 ;     C8-    C7-    C5-   H10
   358    360    361    362      9     0.00   2.17568   3 ;     C8-   C10-   C11-   C12
   358    360    361    363      9     0.00   2.17568   3 ;     C8-   C10-   C11-   C13
   358    360    361    388      9     0.00   0.54392   3 ;     C8-   C10-   C11-   H22
   359    358    357    380      9     0.00   0.54392   3 ;     C9-    C8-    C7-   H14
   359    358    357    381      9     0.00   0.54392   3 ;     C9-    C8-    C7-   H15
   359    358    360    361      9     0.00   2.17568   3 ;     C9-    C8-   C10-   C11
   359    358    360    386      9     0.00   0.54392   3 ;     C9-    C8-   C10-   H20
   359    358    360    387      9     0.00   0.54392   3 ;     C9-    C8-   C10-   H21
   360    358    357    380      9     0.00   0.54392   3 ;    C10-    C8-    C7-   H14
   360    358    357    381      9     0.00   0.54392   3 ;    C10-    C8-    C7-   H15
   360    358    359    383      9     0.00   0.54392   3 ;    C10-    C8-    C9-   H17
   360    358    359    384      9     0.00   0.54392   3 ;    C10-    C8-    C9-   H18
   360    358    359    385      9     0.00   0.54392   3 ;    C10-    C8-    C9-   H19
   360    361    362    389      9     0.00   0.54392   3 ;    C10-   C11-   C12-   H23
   360    361    362    390      9     0.00   0.54392   3 ;    C10-   C11-   C12-   H24
   360    361    362    391      9     0.00   0.54392   3 ;    C10-   C11-   C12-   H25
   360    361    363    364      9     0.00   2.17568   3 ;    C10-   C11-   C13-   C14
   360    361    363    392      9     0.00   0.54392   3 ;    C10-   C11-   C13-   H26
   360    361    363    393      9     0.00   0.54392   3 ;    C10-   C11-   C13-   H27
   361    360    358    382      9     0.00   0.54392   3 ;    C11-   C10-    C8-   H16
   361    363    364    365      9     0.00   2.17568   3 ;    C11-   C13-   C14-   C15
   361    363    364    366      9     0.00   2.17568   3 ;    C11-   C13-   C14-   C16
   361    363    364    394      9     0.00   0.54392   3 ;    C11-   C13-   C14-   H28
   362    361    360    386      9     0.00   0.54392   3 ;    C12-   C11-   C10-   H20
   362    361    360    387      9     0.00   0.54392   3 ;    C12-   C11-   C10-   H21
   362    361    363    364      9     0.00   2.17568   3 ;    C12-   C11-   C13-   C14
   362    361    363    392      9     0.00   0.54392   3 ;    C12-   C11-   C13-   H26
   362    361    363    393      9     0.00   0.54392   3 ;    C12-   C11-   C13-   H27
   363    361    360    386      9     0.00   0.54392   3 ;    C13-   C11-   C10-   H20
   363    361    360    387      9     0.00   0.54392   3 ;    C13-   C11-   C10-   H21
   363    361    362    389      9     0.00   0.54392   3 ;    C13-   C11-   C12-   H23
   363    361    362    390      9     0.00   0.54392   3 ;    C13-   C11-   C12-   H24
   363    361    362    391      9     0.00   0.54392   3 ;    C13-   C11-   C12-   H25
   363    364    365    395      9     0.00   0.54392   3 ;    C13-   C14-   C15-   H29
   363    364    365    396      9     0.00   0.54392   3 ;    C13-   C14-   C15-   H30
   363    364    365    397      9     0.00   0.54392   3 ;    C13-   C14-   C15-   H31
   363    364    366    398      9     0.00   0.54392   3 ;    C13-   C14-   C16-   H32
   363    364    366    399      9     0.00   0.54392   3 ;    C13-   C14-   C16-   H33
   363    364    366    400      9     0.00   0.54392   3 ;    C13-   C14-   C16-   H34
   364    363    361    388      9     0.00   0.54392   3 ;    C14-   C13-   C11-   H22
   365    364    363    392      9     0.00   0.54392   3 ;    C15-   C14-   C13-   H26
   365    364    363    393      9     0.00   0.54392   3 ;    C15-   C14-   C13-   H27
   365    364    366    398      9     0.00   0.54392   3 ;    C15-   C14-   C16-   H32
   365    364    366    399      9     0.00   0.54392   3 ;    C15-   C14-   C16-   H33
   365    364    366    400      9     0.00   0.54392   3 ;    C15-   C14-   C16-   H34
   366    364    363    392      9     0.00   0.54392   3 ;    C16-   C14-   C13-   H26
   366    364    363    393      9     0.00   0.54392   3 ;    C16-   C14-   C13-   H27
   366    364    365    395      9     0.00   0.54392   3 ;    C16-   C14-   C15-   H29
   366    364    365    396      9     0.00   0.54392   3 ;    C16-   C14-   C15-   H30
   366    364    365    397      9     0.00   0.54392   3 ;    C16-   C14-   C15-   H31
   367    351    352    370      9     0.00   0.50208   3 ;     H1-    C1-    C2-    H4
   368    351    352    370      9     0.00   0.50208   3 ;     H2-    C1-    C2-    H4
   369    351    352    370      9     0.00   0.50208   3 ;     H3-    C1-    C2-    H4
   370    352    353    371      9     0.00   0.50208   3 ;     H4-    C2-    C3-    H5
   370    352    353    372      9     0.00   0.50208   3 ;     H4-    C2-    C3-    H6
   370    352    353    373      9     0.00   0.50208   3 ;     H4-    C2-    C3-    H7
   370    352    354    374      9     0.00   0.50208   3 ;     H4-    C2-    C4-    H8
   370    352    354    375      9     0.00   0.50208   3 ;     H4-    C2-    C4-    H9
   374    354    355    376      9     0.00   0.50208   3 ;     H8-    C4-    C5-   H10
   375    354    355    376      9     0.00   0.50208   3 ;     H9-    C4-    C5-   H10
   376    355    356    377      9     0.00   0.50208   3 ;    H10-    C5-    C6-   H11
   376    355    356    378      9     0.00   0.50208   3 ;    H10-    C5-    C6-   H12
   376    355    356    379      9     0.00   0.50208   3 ;    H10-    C5-    C6-   H13
   376    355    357    380      9     0.00   0.50208   3 ;    H10-    C5-    C7-   H14
   376    355    357    381      9     0.00   0.50208   3 ;    H10-    C5-    C7-   H15
   380    357    358    382      9     0.00   0.50208   3 ;    H14-    C7-    C8-   H16
   381    357    358    382      9     0.00   0.50208   3 ;    H15-    C7-    C8-   H16
   382    358    359    383      9     0.00   0.50208   3 ;    H16-    C8-    C9-   H17
   382    358    359    384      9     0.00   0.50208   3 ;    H16-    C8-    C9-   H18
   382    358    359    385      9     0.00   0.50208   3 ;    H16-    C8-    C9-   H19
   382    358    360    386      9     0.00   0.50208   3 ;    H16-    C8-   C10-   H20
   382    358    360    387      9     0.00   0.50208   3 ;    H16-    C8-   C10-   H21
   386    360    361    388      9     0.00   0.50208   3 ;    H20-   C10-   C11-   H22
   387    360    361    388      9     0.00   0.50208   3 ;    H21-   C10-   C11-   H22
   388    361    362    389      9     0.00   0.50208   3 ;    H22-   C11-   C12-   H23
   388    361    362    390      9     0.00   0.50208   3 ;    H22-   C11-   C12-   H24
   388    361    362    391      9     0.00   0.50208   3 ;    H22-   C11-   C12-   H25
   388    361    363    392      9     0.00   0.50208   3 ;    H22-   C11-   C13-   H26
   388    361    363    393      9     0.00   0.50208   3 ;    H22-   C11-   C13-   H27
   392    363    364    394      9     0.00   0.50208   3 ;    H26-   C13-   C14-   H28
   393    363    364    394      9     0.00   0.50208   3 ;    H27-   C13-   C14-   H28
   394    364    365    395      9     0.00   0.50208   3 ;    H28-   C14-   C15-   H29
   394    364    365    396      9     0.00   0.50208   3 ;    H28-   C14-   C15-   H30
   394    364    365    397      9     0.00   0.50208   3 ;    H28-   C14-   C15-   H31
   394    364    366    398      9     0.00   0.50208   3 ;    H28-   C14-   C16-   H32
   394    364    366    399      9     0.00   0.50208   3 ;    H28-   C14-   C16-   H33
   394    364    366    400      9     0.00   0.50208   3 ;    H28-   C14-   C16-   H34
   401    402    403    421      9     0.00   0.54392   3 ;     C1-    C2-    C3-    H5
   401    402    403    422      9     0.00   0.54392   3 ;     C1-    C2-    C3-    H6
   401    402    403    423      9     0.00   0.54392   3 ;     C1-    C2-    C3-    H7
   401    402    404    405      9     0.00   2.17568   3 ;     C1-    C2-    C4-    C5
   401    402    404    424      9     0.00   0.54392   3 ;     C1-    C2-    C4-    H8
   401    402    404    425      9     0.00   0.54392   3 ;     C1-    C2-    C4-    H9
   402    404    405    406      9     0.00   2.17568   3 ;     C2-    C4-    C5-    C6
   402    404    405    407      9     0.00   2.17568   3 ;     C2-    C4-    C5-    C7
   402    404    405    426      9     0.00   0.54392   3 ;     C2-    C4-    C5-   H10
   403    402    401    417      9     0.00   0.54392   3 ;     C3-    C2-    C1-    H1
   403    402    401    418      9     0.00   0.54392   3 ;     C3-    C2-    C1-    H2
   403    402    401    419      9     0.00   0.54392   3 ;     C3-    C2-    C1-    H3
   403    402    404    405      9     0.00   2.17568   3 ;     C3-    C2-    C4-    C5
   403    402    404    424      9     0.00   0.54392   3 ;     C3-    C2-    C4-    H8
   403    402    404    425      9     0.00   0.54392   3 ;     C3-    C2-    C4-    H9
   404    402    401    417      9     0.00   0.54392   3 ;     C4-    C2-    C1-    H1
   404    402    401    418      9     0.00   0.54392   3 ;     C4-    C2-    C1-    H2
   404    402    401    419      9     0.00   0.54392   3 ;     C4-    C2-    C1-    H3
   404    402    403    421      9     0.00   0.54392   3 ;     C4-    C2-    C3-    H5
   404    402    403    422      9     0.00   0.54392   3 ;     C4-    C2-    C3-    H6
   404    402    403    423      9     0.00   0.54392   3 ;     C4-    C2-    C3-    H7
   404    405    406    427      9     0.00   0.54392   3 ;     C4-    C5-    C6-   H11
   404    405    406    428      9     0.00   0.54392   3 ;     C4-    C5-    C6-   H12
   404    405    406    429      9     0.00   0.54392   3 ;     C4-    C5-    C6-   H13
   404    405    407    408      9     0.00   2.17568   3 ;     C4-    C5-    C7-    C8
   404    405    407    430      9     0.00   0.54392   3 ;     C4-    C5-    C7-   H14
   404    405    407    431      9     0.00   0.54392   3 ;     C4-    C5-    C7-   H15
   405    404    402    420      9     0.00   0.54392   3 ;     C5-    C4-    C2-    H4
   405    407    408    409      9     0.00   2.17568   3 ;     C5-    C7-    C8-    C9
   405    407    408    410      9     0.00   2.17568   3 ;     C5-    C7-    C8-   C10
   405    407    408    432      9     0.00   0.54392   3 ;     C5-    C7-    C8-   H16
   406    405    404    424      9     0.00   0.54392   3 ;     C6-    C5-    C4-    H8
   406    405    404    425      9     0.00   0.54392   3 ;     C6-    C5-    C4-    H9
   406    405    407    408      9     0.00   2.17568   3 ;     C6-    C5-    C7-    C8
   406    405    407    430      9     0.00   0.54392   3 ;     C6-    C5-    C7-   H14
   406    405    407    431      9     0.00   0.54392   3 ;     C6-    C5-    C7-   H15
   407    405    404    424      9     0.00   0.54392   3 ;     C7-    C5-    C4-    H8
   407    405    404    425      9     0.00   0.54392   3 ;     C7-    C5-    C4-    H9
   407    405    406    427      9     0.00   0.54392   3 ;     C7-    C5-    C6-   H11
   407    405    406    428      9     0.00   0.54392   3 ;     C7-    C5-    C6-   H12
   407    405    406    429      9     0.00   0.54392   3 ;     C7-    C5-    C6-   H13
   407    408    409    433      9     0.00   0.54392   3 ;     C7-    C8-    C9-   H17
   407    408    409    434      9     0.00   0.54392   3 ;     C7-    C8-    C9-   H18
   407    408    409    435      9     0.00   0.54392   3 ;     C7-    C8-    C9-   H19
   407    408    410    411      9     0.00   2.17568   3 ;     C7-    C8-   C10-   C11
   407    408    410    436      9     0.00   0.54392   3 ;     C7-    C8-   C10-   H20
   407    408    410    437      9     0.00   0.54392   3 ;     C7-    C8-   C10-   H21
   408    407    405    426      9     0.00   0.54392   3 ;     C8-    C7-    C5-   H10
   408    410    411    412      9     0.00   2.17568   3 ;     C8-   C10-   C11-   C12
   408    410    411    413      9     0.00   2.17568   3 ;     C8-   C10-   C11-   C13
   408    410    411    438      9     0.00   0.54392   3 ;     C8-   C10-   C11-   H22
   409    408    407    430      9     0.00   0.54392   3 ;     C9-    C8-    C7-   H14
   409    408    407    431      9     0.00   0.54392   3 ;     C9-    C8-    C7-   H15
   409    408    410    411      9     0.00   2.17568   3 ;     C9-    C8-   C10-   C11
   409    408    410    436      9     0.00   0.54392   3 ;     C9-    C8-   C10-   H20
   409    408    410    437      9     0.00   0.54392   3 ;     C9-    C8-   C10-   H21
   410    408    407    430      9     0.00   0.54392   3 ;    C10-    C8-    C7-   H14
   410    408    407    431      9     0.00   0.54392   3 ;    C10-    C8-    C7-   H15
   410    408    409    433      9     0.00   0.54392   3 ;    C10-    C8-    C9-   H17
   410    408    409    434      9     0.00   0.54392   3 ;    C10-    C8-    C9-   H18
   410    408    409    435      9     0.00   0.54392   3 ;    C10-    C8-    C9-   H19
   410    411    412    439      9     0.00   0.54392   3 ;    C10-   C11-   C12-   H23
   410    411    412    440      9     0.00   0.54392   3 ;    C10-   C11-   C12-   H24
   410    411    412    441      9     0.00   0.54392   3 ;    C10-   C11-   C12-   H25
   410    411    413    414      9     0.00   2.17568   3 ;    C10-   C11-   C13-   C14
   410    411    413    442      9     0.00   0.54392   3 ;    C10-   C11-   C13-   H26
   410    411    413    443      9     0.00   0.54392   3 ;    C10-   C11-   C13-   H27
   411    410    408    432      9     0.00   0.54392   3 ;    C11-   C10-    C8-   H16
   411    413    414    415      9     0.00   2.17568   3 ;    C11-   C13-   C14-   C15
   411    413    414    416      9     0.00   2.17568   3 ;    C11-   C13-   C14-   C16
   411    413    414    444      9     0.00   0.54392   3 ;    C11-   C13-   C14-   H28
   412    411    410    436      9     0.00   0.54392   3 ;    C12-   C11-   C10-   H20
   412    411    410    437      9     0.00   0.54392   3 ;    C12-   C11-   C10-   H21
   412    411    413    414      9     0.00   2.17568   3 ;    C12-   C11-   C13-   C14
   412    411    413    442      9     0.00   0.54392   3 ;    C12-   C11-   C13-   H26
   412    411    413    443      9     0.00   0.54392   3 ;    C12-   C11-   C13-   H27
   413    411    410    436      9     0.00   0.54392   3 ;    C13-   C11-   C10-   H20
   413    411    410    437      9     0.00   0.54392   3 ;    C13-   C11-   C10-   H21
   413    411    412    439      9     0.00   0.54392   3 ;    C13-   C11-   C12-   H23
   413    411    412    440      9     0.00   0.54392   3 ;    C13-   C11-   C12-   H24
   413    411    412    441      9     0.00   0.54392   3 ;    C13-   C11-   C12-   H25
   413    414    415    445      9     0.00   0.54392   3 ;    C13-   C14-   C15-   H29
   413    414    415    446      9     0.00   0.54392   3 ;    C13-   C14-   C15-   H30
   413    414    415    447      9     0.00   0.54392   3 ;    C13-   C14-   C15-   H31
   413    414    416    448      9     0.00   0.54392   3 ;    C13-   C14-   C16-   H32
   413    414    416    449      9     0.00   0.54392   3 ;    C13-   C14-   C16-   H33
   413    414    416    450      9     0.00   0.54392   3 ;    C13-   C14-   C16-   H34
   414    413    411    438      9     0.00   0.54392   3 ;    C14-   C13-   C11-   H22
   415    414    413    442      9     0.00   0.54392   3 ;    C15-   C14-   C13-   H26
   415    414    413    443      9     0.00   0.54392   3 ;    C15-   C14-   C13-   H27
   415    414    416    448      9     0.00   0.54392   3 ;    C15-   C14-   C16-   H32
   415    414    416    449      9     0.00   0.54392   3 ;    C15-   C14-   C16-   H33
   415    414    416    450      9     0.00   0.54392   3 ;    C15-   C14-   C16-   H34
   416    414    413    442      9     0.00   0.54392   3 ;    C16-   C14-   C13-   H26
   416    414    413    443      9     0.00   0.54392   3 ;    C16-   C14-   C13-   H27
   416    414    415    445      9     0.00   0.54392   3 ;    C16-   C14-   C15-   H29
   416    414    415    446      9     0.00   0.54392   3 ;    C16-   C14-   C15-   H30
   416    414    415    447      9     0.00   0.54392   3 ;    C16-   C14-   C15-   H31
   417    401    402    420      9     0.00   0.50208   3 ;     H1-    C1-    C2-    H4
   418    401    402    420      9     0.00   0.50208   3 ;     H2-    C1-    C2-    H4
   419    401    402    420      9     0.00   0.50208   3 ;     H3-    C1-    C2-    H4
   420    402    403    421      9     0.00   0.50208   3 ;     H4-    C2-    C3-    H5
   420    402    403    422      9     0.00   0.50208   3 ;     H4-    C2-    C3-    H6
   420    402    403    423      9     0.00   0.50208   3 ;     H4-    C2-    C3-    H7
   420    402    404    424      9     0.00   0.50208   3 ;     H4-    C2-    C4-    H8
   420    402    404    425      9     0.00   0.50208   3 ;     H4-    C2-    C4-    H9
   424    404    405    426      9     0.00   0.50208   3 ;     H8-    C4-    C5-   H10
   425    404    405    426      9     0.00   0.50208   3 ;     H9-    C4-    C5-   H10
   426    405    406    427      9     0.00   0.50208   3 ;    H10-    C5-    C6-   H11
   426    405    406    428      9     0.00   0.50208   3 ;    H10-    C5-    C6-   H12
   426    405    406    429      9     0.00   0.50208   3 ;    H10-    C5-    C6-   H13
   426    405    407    430      9     0.00   0.50208   3 ;    H10-    C5-    C7-   H14
   426    405    407    431      9     0.00   0.50208   3 ;    H10-    C5-    C7-   H15
   430    407    408    432      9     0.00   0.50208   3 ;    H14-    C7-    C8-   H16
   431    407    408    432      9     0.00   0.50208   3 ;    H15-    C7-    C8-   H16
   432    408    409    433      9     0.00   0.50208   3 ;    H16-    C8-    C9-   H17
   432    408    409    434      9     0.00   0.50208   3 ;    H16-    C8-    C9-   H18
   432    408    409    435      9     0.00   0.50208   3 ;    H16-    C8-    C9-   H19
   432    408    410    436      9     0.00   0.50208   3 ;    H16-    C8-   C10-   H20
   432    408    410    437      9     0.00   0.50208   3 ;    H16-    C8-   C10-   H21
   436    410    411    438      9     0.00   0.50208   3 ;    H20-   C10-   C11-   H22
   437    410    411    438      9     0.00   0.50208   3 ;    H21-   C10-   C11-   H22
   438    411    412    439      9     0.00   0.50208   3 ;    H22-   C11-   C12-   H23
   438    411    412    440      9     0.00   0.50208   3 ;    H22-   C11-   C12-   H24
   438    411    412    441      9     0.00   0.50208   3 ;    H22-   C11-   C12-   H25
   438    411    413    442      9     0.00   0.50208   3 ;    H22-   C11-   C13-   H26
   438    411    413    443      9     0.00   0.50208   3 ;    H22-   C11-   C13-   H27
   442    413    414    444      9     0.00   0.50208   3 ;    H26-   C13-   C14-   H28
   443    413    414    444      9     0.00   0.50208   3 ;    H27-   C13-   C14-   H28
   444    414    415    445      9     0.00   0.50208   3 ;    H28-   C14-   C15-   H29
   444    414    415    446      9     0.00   0.50208   3 ;    H28-   C14-   C15-   H30
   444    414    415    447      9     0.00   0.50208   3 ;    H28-   C14-   C15-   H31
   444    414    416    448      9     0.00   0.50208   3 ;    H28-   C14-   C16-   H32
   444    414    416    449      9     0.00   0.50208   3 ;    H28-   C14-   C16-   H33
   444    414    416    450      9     0.00   0.50208   3 ;    H28-   C14-   C16-   H34
   451    452    453    471      9     0.00   0.54392   3 ;     C1-    C2-    C3-    H5
   451    452    453    472      9     0.00   0.54392   3 ;     C1-    C2-    C3-    H6
   451    452    453    473      9     0.00   0.54392   3 ;     C1-    C2-    C3-    H7
   451    452    454    455      9     0.00   2.17568   3 ;     C1-    C2-    C4-    C5
   451    452    454    474      9     0.00   0.54392   3 ;     C1-    C2-    C4-    H8
   451    452    454    475      9     0.00   0.54392   3 ;     C1-    C2-    C4-    H9
   452    454    455    456      9     0.00   2.17568   3 ;     C2-    C4-    C5-    C6
   452    454    455    457      9     0.00   2.17568   3 ;     C2-    C4-    C5-    C7
   452    454    455    476      9     0.00   0.54392   3 ;     C2-    C4-    C5-   H10
   453    452    451    467      9     0.00   0.54392   3 ;     C3-    C2-    C1-    H1
   453    452    451    468      9     0.00   0.54392   3 ;     C3-    C2-    C1-    H2
   453    452    451    469      9     0.00   0.54392   3 ;     C3-    C2-    C1-    H3
   453    452    454    455      9     0.00   2.17568   3 ;     C3-    C2-    C4-    C5
   453    452    454    474      9     0.00   0.54392   3 ;     C3-    C2-    C4-    H8
   453    452    454    475      9     0.00   0.54392   3 ;     C3-    C2-    C4-    H9
   454    452    451    467      9     0.00   0.54392   3 ;     C4-    C2-    C1-    H1
   454    452    451    468      9     0.00   0.54392   3 ;     C4-    C2-    C1-    H2
   454    452    451    469      9     0.00   0.54392   3 ;     C4-    C2-    C1-    H3
   454    452    453    471      9     0.00   0.54392   3 ;     C4-    C2-    C3-    H5
   454    452    453    472      9     0.00   0.54392   3 ;     C4-    C2-    C3-    H6
   454    452    453    473      9     0.00   0.54392   3 ;     C4-    C2-    C3-    H7
   454    455    456    477      9     0.00   0.54392   3 ;     C4-    C5-    C6-   H11
   454    455    456    478      9     0.00   0.54392   3 ;     C4-    C5-    C6-   H12
   454    455    456    479      9     0.00   0.54392   3 ;     C4-    C5-    C6-   H13
   454    455    457    458      9     0.00   2.17568   3 ;     C4-    C5-    C7-    C8
   454    455    457    480      9     0.00   0.54392   3 ;     C4-    C5-    C7-   H14
   454    455    457    481      9     0.00   0.54392   3 ;     C4-    C5-    C7-   H15
   455    454    452    470      9     0.00   0.54392   3 ;     C5-    C4-    C2-    H4
   455    457    458    459      9     0.00   2.17568   3 ;     C5-    C7-    C8-    C9
   455    457    458    460      9     0.00   2.17568   3 ;     C5-    C7-    C8-   C10
   455    457    458    482      9     0.00   0.54392   3 ;     C5-    C7-    C8-   H16
   456    455    454    474      9     0.00   0.54392   3 ;     C6-    C5-    C4-    H8
   456    455    454    475      9     0.00   0.54392   3 ;     C6-    C5-    C4-    H9
   456    455    457    458      9     0.00   2.17568   3 ;     C6-    C5-    C7-    C8
   456    455    457    480      9     0.00   0.54392   3 ;     C6-    C5-    C7-   H14
   456    455    457    481      9     0.00   0.54392   3 ;     C6-    C5-    C7-   H15
   457    455    454    474      9     0.00   0.54392   3 ;     C7-    C5-    C4-    H8
   457    455    454    475      9     0.00   0.54392   3 ;     C7-    C5-    C4-    H9
   457    455    456    477      9     0.00   0.54392   3 ;     C7-    C5-    C6-   H11
   457    455    456    478      9     0.00   0.54392   3 ;     C7-    C5-    C6-   H12
   457    455    456    479      9     0.00   0.54392   3 ;     C7-    C5-    C6-   H13
   457    458    459    483      9     0.00   0.54392   3 ;     C7-    C8-    C9-   H17
   457    458    459    484      9     0.00   0.54392   3 ;     C7-    C8-    C9-   H18
   457    458    459    485      9     0.00   0.54392   3 ;     C7-    C8-    C9-   H19
   457    458    460    461      9     0.00   2.17568   3 ;     C7-    C8-   C10-   C11
   457    458    460    486      9     0.00   0.54392   3 ;     C7-    C8-   C10-   H20
   457    458    460    487      9     0.00   0.54392   3 ;     C7-    C8-   C10-   H21
   458    457    455    476      9     0.00   0.54392   3 ;     C8-    C7-    C5-   H10
   458    460    461    462      9     0.00   2.17568   3 ;     C8-   C10-   C11-   C12
   458    460    461    463      9     0.00   2.17568   3 ;     C8-   C10-   C11-   C13
   458    460    461    488      9     0.00   0.54392   3 ;     C8-   C10-   C11-   H22
   459    458    457    480      9     0.00   0.54392   3 ;     C9-    C8-    C7-   H14
   459    458    457    481      9     0.00   0.54392   3 ;     C9-    C8-    C7-   H15
   459    458    460    461      9     0.00   2.17568   3 ;     C9-    C8-   C10-   C11
   459    458    460    486      9     0.00   0.54392   3 ;     C9-    C8-   C10-   H20
   459    458    460    487      9     0.00   0.54392   3 ;     C9-    C8-   C10-   H21
   460    458    457    480      9     0.00   0.54392   3 ;    C10-    C8-    C7-   H14
   460    458    457    481      9     0.00   0.54392   3 ;    C10-    C8-    C7-   H15
   460    458    459    483      9     0.00   0.54392   3 ;    C10-    C8-    C9-   H17
   460    458    459    484      9     0.00   0.54392   3 ;    C10-    C8-    C9-   H18
   460    458    459    485      9     0.00   0.54392   3 ;    C10-    C8-    C9-   H19
   460    461    462    489      9     0.00   0.54392   3 ;    C10-   C11-   C12-   H23
   460    461    462    490      9     0.00   0.54392   3 ;    C10-   C11-   C12-   H24
   460    461    462    491      9     0.00   0.54392   3 ;    C10-   C11-   C12-   H25
   460    461    463    464      9     0.00   2.17568   3 ;    C10-   C11-   C13-   C14
   460    461    463    492      9     0.00   0.54392   3 ;    C10-   C11-   C13-   H26
   460    461    463    493      9     0.00   0.54392   3 ;    C10-   C11-   C13-   H27
   461    460    458    482      9     0.00   0.54392   3 ;    C11-   C10-    C8-   H16
   461    463    464    465      9     0.00   2.17568   3 ;    C11-   C13-   C14-   C15
   461    463    464    466      9     0.00   2.17568   3 ;    C11-   C13-   C14-   C16
   461    463    464    494      9     0.00   0.54392   3 ;    C11-   C13-   C14-   H28
   462    461    460    486      9     0.00   0.54392   3 ;    C12-   C11-   C10-   H20
   462    461    460    487      9     0.00   0.54392   3 ;    C12-   C11-   C10-   H21
   462    461    463    464      9     0.00   2.17568   3 ;    C12-   C11-   C13-   C14
   462    461    463    492      9     0.00   0.54392   3 ;    C12-   C11-   C13-   H26
   462    461    463    493      9     0.00   0.54392   3 ;    C12-   C11-   C13-   H27
   463    461    460    486      9     0.00   0.54392   3 ;    C13-   C11-   C10-   H20
   463    461    460    487      9     0.00   0.54392   3 ;    C13-   C11-   C10-   H21
   463    461    462    489      9     0.00   0.54392   3 ;    C13-   C11-   C12-   H23
   463    461    462    490      9     0.00   0.54392   3 ;    C13-   C11-   C12-   H24
   463    461    462    491      9     0.00   0.54392   3 ;    C13-   C11-   C12-   H25
   463    464    465    495      9     0.00   0.54392   3 ;    C13-   C14-   C15-   H29
   463    464    465    496      9     0.00   0.54392   3 ;    C13-   C14-   C15-   H30
   463    464    465    497      9     0.00   0.54392   3 ;    C13-   C14-   C15-   H31
   463    464    466    498      9     0.00   0.54392   3 ;    C13-   C14-   C16-   H32
   463    464    466    499      9     0.00   0.54392   3 ;    C13-   C14-   C16-   H33
   463    464    466    500      9     0.00   0.54392   3 ;    C13-   C14-   C16-   H34
   464    463    461    488      9     0.00   0.54392   3 ;    C14-   C13-   C11-   H22
   465    464    463    492      9     0.00   0.54392   3 ;    C15-   C14-   C13-   H26
   465    464    463    493      9     0.00   0.54392   3 ;    C15-   C14-   C13-   H27
   465    464    466    498      9     0.00   0.54392   3 ;    C15-   C14-   C16-   H32
   465    464    466    499      9     0.00   0.54392   3 ;    C15-   C14-   C16-   H33
   465    464    466    500      9     0.00   0.54392   3 ;    C15-   C14-   C16-   H34
   466    464    463    492      9     0.00   0.54392   3 ;    C16-   C14-   C13-   H26
   466    464    463    493      9     0.00   0.54392   3 ;    C16-   C14-   C13-   H27
   466    464    465    495      9     0.00   0.54392   3 ;    C16-   C14-   C15-   H29
   466    464    465    496      9     0.00   0.54392   3 ;    C16-   C14-   C15-   H30
   466    464    465    497      9     0.00   0.54392   3 ;    C16-   C14-   C15-   H31
   467    451    452    470      9     0.00   0.50208   3 ;     H1-    C1-    C2-    H4
   468    451    452    470      9     0.00   0.50208   3 ;     H2-    C1-    C2-    H4
   469    451    452    470      9     0.00   0.50208   3 ;     H3-    C1-    C2-    H4
   470    452    453    471      9     0.00   0.50208   3 ;     H4-    C2-    C3-    H5
   470    452    453    472      9     0.00   0.50208   3 ;     H4-    C2-    C3-    H6
   470    452    453    473      9     0.00   0.50208   3 ;     H4-    C2-    C3-    H7
   470    452    454    474      9     0.00   0.50208   3 ;     H4-    C2-    C4-    H8
   470    452    454    475      9     0.00   0.50208   3 ;     H4-    C2-    C4-    H9
   474    454    455    476      9     0.00   0.50208   3 ;     H8-    C4-    C5-   H10
   475    454    455    476      9     0.00   0.50208   3 ;     H9-    C4-    C5-   H10
   476    455    456    477      9     0.00   0.50208   3 ;    H10-    C5-    C6-   H11
   476    455    456    478      9     0.00   0.50208   3 ;    H10-    C5-    C6-   H12
   476    455    456    479      9     0.00   0.50208   3 ;    H10-    C5-    C6-   H13
   476    455    457    480      9     0.00   0.50208   3 ;    H10-    C5-    C7-   H14
   476    455    457    481      9     0.00   0.50208   3 ;    H10-    C5-    C7-   H15
   480    457    458    482      9     0.00   0.50208   3 ;    H14-    C7-    C8-   H16
   481    457    458    482      9     0.00   0.50208   3 ;    H15-    C7-    C8-   H16
   482    458    459    483      9     0.00   0.50208   3 ;    H16-    C8-    C9-   H17
   482    458    459    484      9     0.00   0.50208   3 ;    H16-    C8-    C9-   H18
   482    458    459    485      9     0.00   0.50208   3 ;    H16-    C8-    C9-   H19
   482    458    460    486      9     0.00   0.50208   3 ;    H16-    C8-   C10-   H20
   482    458    460    487      9     0.00   0.50208   3 ;    H16-    C8-   C10-   H21
   486    460    461    488      9     0.00   0.50208   3 ;    H20-   C10-   C11-   H22
   487    460    461    488      9     0.00   0.50208   3 ;    H21-   C10-   C11-   H22
   488    461    462    489      9     0.00   0.50208   3 ;    H22-   C11-   C12-   H23
   488    461    462    490      9     0.00   0.50208   3 ;    H22-   C11-   C12-   H24
   488    461    462    491      9     0.00   0.50208   3 ;    H22-   C11-   C12-   H25
   488    461    463    492      9     0.00   0.50208   3 ;    H22-   C11-   C13-   H26
   488    461    463    493      9     0.00   0.50208   3 ;    H22-   C11-   C13-   H27
   492    463    464    494      9     0.00   0.50208   3 ;    H26-   C13-   C14-   H28
   493    463    464    494      9     0.00   0.50208   3 ;    H27-   C13-   C14-   H28
   494    464    465    495      9     0.00   0.50208   3 ;    H28-   C14-   C15-   H29
   494    464    465    496      9     0.00   0.50208   3 ;    H28-   C14-   C15-   H30
   494    464    465    497      9     0.00   0.50208   3 ;    H28-   C14-   C15-   H31
   494    464    466    498      9     0.00   0.50208   3 ;    H28-   C14-   C16-   H32
   494    464    466    499      9     0.00   0.50208   3 ;    H28-   C14-   C16-   H33
   494    464    466    500      9     0.00   0.50208   3 ;    H28-   C14-   C16-   H34
   501    502    503    521      9     0.00   0.54392   3 ;     C1-    C2-    C3-    H5
   501    502    503    522      9     0.00   0.54392   3 ;     C1-    C2-    C3-    H6
   501    502    503    523      9     0.00   0.54392   3 ;     C1-    C2-    C3-    H7
   501    502    504    505      9     0.00   2.17568   3 ;     C1-    C2-    C4-    C5
   501    502    504    524      9     0.00   0.54392   3 ;     C1-    C2-    C4-    H8
   501    502    504    525      9     0.00   0.54392   3 ;     C1-    C2-    C4-    H9
   502    504    505    506      9     0.00   2.17568   3 ;     C2-    C4-    C5-    C6
   502    504    505    507      9     0.00   2.17568   3 ;     C2-    C4-    C5-    C7
   502    504    505    526      9     0.00   0.54392   3 ;     C2-    C4-    C5-   H10
   503    502    501    517      9     0.00   0.54392   3 ;     C3-    C2-    C1-    H1
   503    502    501    518      9     0.00   0.54392   3 ;     C3-    C2-    C1-    H2
   503    502    501    519      9     0.00   0.54392   3 ;     C3-    C2-    C1-    H3
   503    502    504    505      9     0.00   2.17568   3 ;     C3-    C2-    C4-    C5
   503    502    504    524      9     0.00   0.54392   3 ;     C3-    C2-    C4-    H8
   503    502    504    525      9     0.00   0.54392   3 ;     C3-    C2-    C4-    H9
   504    502    501    517      9     0.00   0.54392   3 ;     C4-    C2-    C1-    H1
   504    502    501    518      9     0.00   0.54392   3 ;     C4-    C2-    C1-    H2
   504    502    501    519      9     0.00   0.54392   3 ;     C4-    C2-    C1-    H3
   504    502    503    521      9     0.00   0.54392   3 ;     C4-    C2-    C3-    H5
   504    502    503    522      9     0.00   0.54392   3 ;     C4-    C2-    C3-    H6
   504    502    503    523      9     0.00   0.54392   3 ;     C4-    C2-    C3-    H7
   504    505    506    527      9     0.00   0.54392   3 ;     C4-    C5-    C6-   H11
   504    505    506    528      9     0.00   0.54392   3 ;     C4-    C5-    C6-   H12
   504    505    506    529      9     0.00   0.54392   3 ;     C4-    C5-    C6-   H13
   504    505    507    508      9     0.00   2.17568   3 ;     C4-    C5-    C7-    C8
   504    505    507    530      9     0.00   0.54392   3 ;     C4-    C5-    C7-   H14
   504    505    507    531      9     0.00   0.54392   3 ;     C4-    C5-    C7-   H15
   505    504    502    520      9     0.00   0.54392   3 ;     C5-    C4-    C2-    H4
   505    507    508    509      9     0.00   2.17568   3 ;     C5-    C7-    C8-    C9
   505    507    508    510      9     0.00   2.17568   3 ;     C5-    C7-    C8-   C10
   505    507    508    532      9     0.00   0.54392   3 ;     C5-    C7-    C8-   H16
   506    505    504    524      9     0.00   0.54392   3 ;     C6-    C5-    C4-    H8
   506    505    504    525      9     0.00   0.54392   3 ;     C6-    C5-    C4-    H9
   506    505    507    508      9     0.00   2.17568   3 ;     C6-    C5-    C7-    C8
   506    505    507    530      9     0.00   0.54392   3 ;     C6-    C5-    C7-   H14
   506    505    507    531      9     0.00   0.54392   3 ;     C6-    C5-    C7-   H15
   507    505    504    524      9     0.00   0.54392   3 ;     C7-    C5-    C4-    H8
   507    505    504    525      9     0.00   0.54392   3 ;     C7-    C5-    C4-    H9
   507    505    506    527      9     0.00   0.54392   3 ;     C7-    C5-    C6-   H11
   507    505    506    528      9     0.00   0.54392   3 ;     C7-    C5-    C6-   H12
   507    505    506    529      9     0.00   0.54392   3 ;     C7-    C5-    C6-   H13
   507    508    509    533      9     0.00   0.54392   3 ;     C7-    C8-    C9-   H17
   507    508    509    534      9     0.00   0.54392   3 ;     C7-    C8-    C9-   H18
   507    508    509    535      9     0.00   0.54392   3 ;     C7-    C8-    C9-   H19
   507    508    510    511      9     0.00   2.17568   3 ;     C7-    C8-   C10-   C11
   507    508    510    536      9     0.00   0.54392   3 ;     C7-    C8-   C10-   H20
   507    508    510    537      9     0.00   0.54392   3 ;     C7-    C8-   C10-   H21
   508    507    505    526      9     0.00   0.54392   3 ;     C8-    C7-    C5-   H10
   508    510    511    512      9     0.00   2.17568   3 ;     C8-   C10-   C11-   C12
   508    510    511    513      9     0.00   2.17568   3 ;     C8-   C10-   C11-   C13
   508    510    511    538      9     0.00   0.54392   3 ;     C8-   C10-   C11-   H22
   509    508    507    530      9     0.00   0.54392   3 ;     C9-    C8-    C7-   H14
   509    508    507    531      9     0.00   0.54392   3 ;     C9-    C8-    C7-   H15
   509    508    510    511      9     0.00   2.17568   3 ;     C9-    C8-   C10-   C11
   509    508    510    536      9     0.00   0.54392   3 ;     C9-    C8-   C10-   H20
   509    508    510    537      9     0.00   0.54392   3 ;     C9-    C8-   C10-   H21
   510    508    507    530      9     0.00   0.54392   3 ;    C10-    C8-    C7-   H14
   510    508    507    531      9     0.00   0.54392   3 ;    C10-    C8-    C7-   H15
   510    508    509    533      9     0.00   0.54392   3 ;    C10-    C8-    C9-   H17
   510    508    509    534      9     0.00   0.54392   3 ;    C10-    C8-    C9-   H18
   510    508    509    535      9     0.00   0.54392   3 ;    C10-    C8-    C9-   H19
   510    511    512    539      9     0.00   0.54392   3 ;    C10-   C11-   C12-   H23
   510    511    512    540      9     0.00   0.54392   3 ;    C10-   C11-   C12-   H24
   510    511    512    541      9     0.00   0.54392   3 ;    C10-   C11-   C12-   H25
   510    511    513    514      9     0.00   2.17568   3 ;    C10-   C11-   C13-   C14
   510    511    513    542      9     0.00   0.54392   3 ;    C10-   C11-   C13-   H26
   510    511    513    543      9     0.00   0.54392   3 ;    C10-   C11-   C13-   H27
   511    510    508    532      9     0.00   0.54392   3 ;    C11-   C10-    C8-   H16
   511    513    514    515      9     0.00   2.17568   3 ;    C11-   C13-   C14-   C15
   511    513    514    516      9     0.00   2.17568   3 ;    C11-   C13-   C14-   C16
   511    513    514    544      9     0.00   0.54392   3 ;    C11-   C13-   C14-   H28
   512    511    510    536      9     0.00   0.54392   3 ;    C12-   C11-   C10-   H20
   512    511    510    537      9     0.00   0.54392   3 ;    C12-   C11-   C10-   H21
   512    511    513    514      9     0.00   2.17568   3 ;    C12-   C11-   C13-   C14
   512    511    513    542      9     0.00   0.54392   3 ;    C12-   C11-   C13-   H26
   512    511    513    543      9     0.00   0.54392   3 ;    C12-   C11-   C13-   H27
   513    511    510    536      9     0.00   0.54392   3 ;    C13-   C11-   C10-   H20
   513    511    510    537      9     0.00   0.54392   3 ;    C13-   C11-   C10-   H21
   513    511    512    539      9     0.00   0.54392   3 ;    C13-   C11-   C12-   H23
   513    511    512    540      9     0.00   0.54392   3 ;    C13-   C11-   C12-   H24
   513    511    512    541      9     0.00   0.54392   3 ;    C13-   C11-   C12-   H25
   513    514    515    545      9     0.00   0.54392   3 ;    C13-   C14-   C15-   H29
   513    514    515    546      9     0.00   0.54392   3 ;    C13-   C14-   C15-   H30
   513    514    515    547      9     0.00   0.54392   3 ;    C13-   C14-   C15-   H31
   513    514    516    548      9     0.00   0.54392   3 ;    C13-   C14-   C16-   H32
   513    514    516    549      9     0.00   0.54392   3 ;    C13-   C14-   C16-   H33
   513    514    516    550      9     0.00   0.54392   3 ;    C13-   C14-   C16-   H34
   514    513    511    538      9     0.00   0.54392   3 ;    C14-   C13-   C11-   H22
   515    514    513    542      9     0.00   0.54392   3 ;    C15-   C14-   C13-   H26
   515    514    513    543      9     0.00   0.54392   3 ;    C15-   C14-   C13-   H27
   515    514    516    548      9     0.00   0.54392   3 ;    C15-   C14-   C16-   H32
   515    514    516    549      9     0.00   0.54392   3 ;    C15-   C14-   C16-   H33
   515    514    516    550      9     0.00   0.54392   3 ;    C15-   C14-   C16-   H34
   516    514    513    542      9     0.00   0.54392   3 ;    C16-   C14-   C13-   H26
   516    514    513    543      9     0.00   0.54392   3 ;    C16-   C14-   C13-   H27
   516    514    515    545      9     0.00   0.54392   3 ;    C16-   C14-   C15-   H29
   516    514    515    546      9     0.00   0.54392   3 ;    C16-   C14-   C15-   H30
   516    514    515    547      9     0.00   0.54392   3 ;    C16-   C14-   C15-   H31
   517    501    502    520      9     0.00   0.50208   3 ;     H1-    C1-    C2-    H4
   518    501    502    520      9     0.00   0.50208   3 ;     H2-    C1-    C2-    H4
   519    501    502    520      9     0.00   0.50208   3 ;     H3-    C1-    C2-    H4
   520    502    503    521      9     0.00   0.50208   3 ;     H4-    C2-    C3-    H5
   520    502    503    522      9     0.00   0.50208   3 ;     H4-    C2-    C3-    H6
   520    502    503    523      9     0.00   0.50208   3 ;     H4-    C2-    C3-    H7
   520    502    504    524      9     0.00   0.50208   3 ;     H4-    C2-    C4-    H8
   520    502    504    525      9     0.00   0.50208   3 ;     H4-    C2-    C4-    H9
   524    504    505    526      9     0.00   0.50208   3 ;     H8-    C4-    C5-   H10
   525    504    505    526      9     0.00   0.50208   3 ;     H9-    C4-    C5-   H10
   526    505    506    527      9     0.00   0.50208   3 ;    H10-    C5-    C6-   H11
   526    505    506    528      9     0.00   0.50208   3 ;    H10-    C5-    C6-   H12
   526    505    506    529      9     0.00   0.50208   3 ;    H10-    C5-    C6-   H13
   526    505    507    530      9     0.00   0.50208   3 ;    H10-    C5-    C7-   H14
   526    505    507    531      9     0.00   0.50208   3 ;    H10-    C5-    C7-   H15
   530    507    508    532      9     0.00   0.50208   3 ;    H14-    C7-    C8-   H16
   531    507    508    532      9     0.00   0.50208   3 ;    H15-    C7-    C8-   H16
   532    508    509    533      9     0.00   0.50208   3 ;    H16-    C8-    C9-   H17
   532    508    509    534      9     0.00   0.50208   3 ;    H16-    C8-    C9-   H18
   532    508    509    535      9     0.00   0.50208   3 ;    H16-    C8-    C9-   H19
   532    508    510    536      9     0.00   0.50208   3 ;    H16-    C8-   C10-   H20
   532    508    510    537      9     0.00   0.50208   3 ;    H16-    C8-   C10-   H21
   536    510    511    538      9     0.00   0.50208   3 ;    H20-   C10-   C11-   H22
   537    510    511    538      9     0.00   0.50208   3 ;    H21-   C10-   C11-   H22
   538    511    512    539      9     0.00   0.50208   3 ;    H22-   C11-   C12-   H23
   538    511    512    540      9     0.00   0.50208   3 ;    H22-   C11-   C12-   H24
   538    511    512    541      9     0.00   0.50208   3 ;    H22-   C11-   C12-   H25
   538    511    513    542      9     0.00   0.50208   3 ;    H22-   C11-   C13-   H26
   538    511    513    543      9     0.00   0.50208   3 ;    H22-   C11-   C13-   H27
   542    513    514    544      9     0.00   0.50208   3 ;    H26-   C13-   C14-   H28
   543    513    514    544      9     0.00   0.50208   3 ;    H27-   C13-   C14-   H28
   544    514    515    545      9     0.00   0.50208   3 ;    H28-   C14-   C15-   H29
   544    514    515    546      9     0.00   0.50208   3 ;    H28-   C14-   C15-   H30
   544    514    515    547      9     0.00   0.50208   3 ;    H28-   C14-   C15-   H31
   544    514    516    548      9     0.00   0.50208   3 ;    H28-   C14-   C16-   H32
   544    514    516    549      9     0.00   0.50208   3 ;    H28-   C14-   C16-   H33
   544    514    516    550      9     0.00   0.50208   3 ;    H28-   C14-   C16-   H34
   551    552    553    571      9     0.00   0.54392   3 ;     C1-    C2-    C3-    H5
   551    552    553    572      9     0.00   0.54392   3 ;     C1-    C2-    C3-    H6
   551    552    553    573      9     0.00   0.54392   3 ;     C1-    C2-    C3-    H7
   551    552    554    555      9     0.00   2.17568   3 ;     C1-    C2-    C4-    C5
   551    552    554    574      9     0.00   0.54392   3 ;     C1-    C2-    C4-    H8
   551    552    554    575      9     0.00   0.54392   3 ;     C1-    C2-    C4-    H9
   552    554    555    556      9     0.00   2.17568   3 ;     C2-    C4-    C5-    C6
   552    554    555    557      9     0.00   2.17568   3 ;     C2-    C4-    C5-    C7
   552    554    555    576      9     0.00   0.54392   3 ;     C2-    C4-    C5-   H10
   553    552    551    567      9     0.00   0.54392   3 ;     C3-    C2-    C1-    H1
   553    552    551    568      9     0.00   0.54392   3 ;     C3-    C2-    C1-    H2
   553    552    551    569      9     0.00   0.54392   3 ;     C3-    C2-    C1-    H3
   553    552    554    555      9     0.00   2.17568   3 ;     C3-    C2-    C4-    C5
   553    552    554    574      9     0.00   0.54392   3 ;     C3-    C2-    C4-    H8
   553    552    554    575      9     0.00   0.54392   3 ;     C3-    C2-    C4-    H9
   554    552    551    567      9     0.00   0.54392   3 ;     C4-    C2-    C1-    H1
   554    552    551    568      9     0.00   0.54392   3 ;     C4-    C2-    C1-    H2
   554    552    551    569      9     0.00   0.54392   3 ;     C4-    C2-    C1-    H3
   554    552    553    571      9     0.00   0.54392   3 ;     C4-    C2-    C3-    H5
   554    552    553    572      9     0.00   0.54392   3 ;     C4-    C2-    C3-    H6
   554    552    553    573      9     0.00   0.54392   3 ;     C4-    C2-    C3-    H7
   554    555    556    577      9     0.00   0.54392   3 ;     C4-    C5-    C6-   H11
   554    555    556    578      9     0.00   0.54392   3 ;     C4-    C5-    C6-   H12
   554    555    556    579      9     0.00   0.54392   3 ;     C4-    C5-    C6-   H13
   554    555    557    558      9     0.00   2.17568   3 ;     C4-    C5-    C7-    C8
   554    555    557    580      9     0.00   0.54392   3 ;     C4-    C5-    C7-   H14
   554    555    557    581      9     0.00   0.54392   3 ;     C4-    C5-    C7-   H15
   555    554    552    570      9     0.00   0.54392   3 ;     C5-    C4-    C2-    H4
   555    557    558    559      9     0.00   2.17568   3 ;     C5-    C7-    C8-    C9
   555    557    558    560      9     0.00   2.17568   3 ;     C5-    C7-    C8-   C10
   555    557    558    582      9     0.00   0.54392   3 ;     C5-    C7-    C8-   H16
   556    555    554    574      9     0.00   0.54392   3 ;     C6-    C5-    C4-    H8
   556    555    554    575      9     0.00   0.54392   3 ;     C6-    C5-    C4-    H9
   556    555    557    558      9     0.00   2.17568   3 ;     C6-    C5-    C7-    C8
   556    555    557    580      9     0.00   0.54392   3 ;     C6-    C5-    C7-   H14
   556    555    557    581      9     0.00   0.54392   3 ;     C6-    C5-    C7-   H15
   557    555    554    574      9     0.00   0.54392   3 ;     C7-    C5-    C4-    H8
   557    555    554    575      9     0.00   0.54392   3 ;     C7-    C5-    C4-    H9
   557    555    556    577      9     0.00   0.54392   3 ;     C7-    C5-    C6-   H11
   557    555    556    578      9     0.00   0.54392   3 ;     C7-    C5-    C6-   H12
   557    555    556    579      9     0.00   0.54392   3 ;     C7-    C5-    C6-   H13
   557    558    559    583      9     0.00   0.54392   3 ;     C7-    C8-    C9-   H17
   557    558    559    584      9     0.00   0.54392   3 ;     C7-    C8-    C9-   H18
   557    558    559    585      9     0.00   0.54392   3 ;     C7-    C8-    C9-   H19
   557    558    560    561      9     0.00   2.17568   3 ;     C7-    C8-   C10-   C11
   557    558    560    586      9     0.00   0.54392   3 ;     C7-    C8-   C10-   H20
   557    558    560    587      9     0.00   0.54392   3 ;     C7-    C8-   C10-   H21
   558    557    555    576      9     0.00   0.54392   3 ;     C8-    C7-    C5-   H10
   558    560    561    562      9     0.00   2.17568   3 ;     C8-   C10-   C11-   C12
   558    560    561    563      9     0.00   2.17568   3 ;     C8-   C10-   C11-   C13
   558    560    561    588      9     0.00   0.54392   3 ;     C8-   C10-   C11-   H22
   559    558    557    580      9     0.00   0.54392   3 ;     C9-    C8-    C7-   H14
   559    558    557    581      9     0.00   0.54392   3 ;     C9-    C8-    C7-   H15
   559    558    560    561      9     0.00   2.17568   3 ;     C9-    C8-   C10-   C11
   559    558    560    586      9     0.00   0.54392   3 ;     C9-    C8-   C10-   H20
   559    558    560    587      9     0.00   0.54392   3 ;     C9-    C8-   C10-   H21
   560    558    557    580      9     0.00   0.54392   3 ;    C10-    C8-    C7-   H14
   560    558    557    581      9     0.00   0.54392   3 ;    C10-    C8-    C7-   H15
   560    558    559    583      9     0.00   0.54392   3 ;    C10-    C8-    C9-   H17
   560    558    559    584      9     0.00   0.54392   3 ;    C10-    C8-    C9-   H18
   560    558    559    585      9     0.00   0.54392   3 ;    C10-    C8-    C9-   H19
   560    561    562    589      9     0.00   0.54392   3 ;    C10-   C11-   C12-   H23
   560    561    562    590      9     0.00   0.54392   3 ;    C10-   C11-   C12-   H24
   560    561    562    591      9     0.00   0.54392   3 ;    C10-   C11-   C12-   H25
   560    561    563    564      9     0.00   2.17568   3 ;    C10-   C11-   C13-   C14
   560    561    563    592      9     0.00   0.54392   3 ;    C10-   C11-   C13-   H26
   560    561    563    593      9     0.00   0.54392   3 ;    C10-   C11-   C13-   H27
   561    560    558    582      9     0.00   0.54392   3 ;    C11-   C10-    C8-   H16
   561    563    564    565      9     0.00   2.17568   3 ;    C11-   C13-   C14-   C15
   561    563    564    566      9     0.00   2.17568   3 ;    C11-   C13-   C14-   C16
   561    563    564    594      9     0.00   0.54392   3 ;    C11-   C13-   C14-   H28
   562    561    560    586      9     0.00   0.54392   3 ;    C12-   C11-   C10-   H20
   562    561    560    587      9     0.00   0.54392   3 ;    C12-   C11-   C10-   H21
   562    561    563    564      9     0.00   2.17568   3 ;    C12-   C11-   C13-   C14
   562    561    563    592      9     0.00   0.54392   3 ;    C12-   C11-   C13-   H26
   562    561    563    593      9     0.00   0.54392   3 ;    C12-   C11-   C13-   H27
   563    561    560    586      9     0.00   0.54392   3 ;    C13-   C11-   C10-   H20
   563    561    560    587      9     0.00   0.54392   3 ;    C13-   C11-   C10-   H21
   563    561    562    589      9     0.00   0.54392   3 ;    C13-   C11-   C12-   H23
   563    561    562    590      9     0.00   0.54392   3 ;    C13-   C11-   C12-   H24
   563    561    562    591      9     0.00   0.54392   3 ;    C13-   C11-   C12-   H25
   563    564    565    595      9     0.00   0.54392   3 ;    C13-   C14-   C15-   H29
   563    564    565    596      9     0.00   0.54392   3 ;    C13-   C14-   C15-   H30
   563    564    565    597      9     0.00   0.54392   3 ;    C13-   C14-   C15-   H31
   563    564    566    598      9     0.00   0.54392   3 ;    C13-   C14-   C16-   H32
   563    564    566    599      9     0.00   0.54392   3 ;    C13-   C14-   C16-   H33
   563    564    566    600      9     0.00   0.54392   3 ;    C13-   C14-   C16-   H34
   564    563    561    588      9     0.00   0.54392   3 ;    C14-   C13-   C11-   H22
   565    564    563    592      9     0.00   0.54392   3 ;    C15-   C14-   C13-   H26
   565    564    563    593      9     0.00   0.54392   3 ;    C15-   C14-   C13-   H27
   565    564    566    598      9     0.00   0.54392   3 ;    C15-   C14-   C16-   H32
   565    564    566    599      9     0.00   0.54392   3 ;    C15-   C14-   C16-   H33
   565    564    566    600      9     0.00   0.54392   3 ;    C15-   C14-   C16-   H34
   566    564    563    592      9     0.00   0.54392   3 ;    C16-   C14-   C13-   H26
   566    564    563    593      9     0.00   0.54392   3 ;    C16-   C14-   C13-   H27
   566    564    565    595      9     0.00   0.54392   3 ;    C16-   C14-   C15-   H29
   566    564    565    596      9     0.00   0.54392   3 ;    C16-   C14-   C15-   H30
   566    564    565    597      9     0.00   0.54392   3 ;    C16-   C14-   C15-   H31
   567    551    552    570      9     0.00   0.50208   3 ;     H1-    C1-    C2-    H4
   568    551    552    570      9     0.00   0.50208   3 ;     H2-    C1-    C2-    H4
   569    551    552    570      9     0.00   0.50208   3 ;     H3-    C1-    C2-    H4
   570    552    553    571      9     0.00   0.50208   3 ;     H4-    C2-    C3-    H5
   570    552    553    572      9     0.00   0.50208   3 ;     H4-    C2-    C3-    H6
   570    552    553    573      9     0.00   0.50208   3 ;     H4-    C2-    C3-    H7
   570    552    554    574      9     0.00   0.50208   3 ;     H4-    C2-    C4-    H8
   570    552    554    575      9     0.00   0.50208   3 ;     H4-    C2-    C4-    H9
   574    554    555    576      9     0.00   0.50208   3 ;     H8-    C4-    C5-   H10
   575    554    555    576      9     0.00   0.50208   3 ;     H9-    C4-    C5-   H10
   576    555    556    577      9     0.00   0.50208   3 ;    H10-    C5-    C6-   H11
   576    555    556    578      9     0.00   0.50208   3 ;    H10-    C5-    C6-   H12
   576    555    556    579      9     0.00   0.50208   3 ;    H10-    C5-    C6-   H13
   576    555    557    580      9     0.00   0.50208   3 ;    H10-    C5-    C7-   H14
   576    555    557    581      9     0.00   0.50208   3 ;    H10-    C5-    C7-   H15
   580    557    558    582      9     0.00   0.50208   3 ;    H14-    C7-    C8-   H16
   581    557    558    582      9     0.00   0.50208   3 ;    H15-    C7-    C8-   H16
   582    558    559    583      9     0.00   0.50208   3 ;    H16-    C8-    C9-   H17
   582    558    559    584      9     0.00   0.50208   3 ;    H16-    C8-    C9-   H18
   582    558    559    585      9     0.00   0.50208   3 ;    H16-    C8-    C9-   H19
   582    558    560    586      9     0.00   0.50208   3 ;    H16-    C8-   C10-   H20
   582    558    560    587      9     0.00   0.50208   3 ;    H16-    C8-   C10-   H21
   586    560    561    588      9     0.00   0.50208   3 ;    H20-   C10-   C11-   H22
   587    560    561    588      9     0.00   0.50208   3 ;    H21-   C10-   C11-   H22
   588    561    562    589      9     0.00   0.50208   3 ;    H22-   C11-   C12-   H23
   588    561    562    590      9     0.00   0.50208   3 ;    H22-   C11-   C12-   H24
   588    561    562    591      9     0.00   0.50208   3 ;    H22-   C11-   C12-   H25
   588    561    563    592      9     0.00   0.50208   3 ;    H22-   C11-   C13-   H26
   588    561    563    593      9     0.00   0.50208   3 ;    H22-   C11-   C13-   H27
   592    563    564    594      9     0.00   0.50208   3 ;    H26-   C13-   C14-   H28
   593    563    564    594      9     0.00   0.50208   3 ;    H27-   C13-   C14-   H28
   594    564    565    595      9     0.00   0.50208   3 ;    H28-   C14-   C15-   H29
   594    564    565    596      9     0.00   0.50208   3 ;    H28-   C14-   C15-   H30
   594    564    565    597      9     0.00   0.50208   3 ;    H28-   C14-   C15-   H31
   594    564    566    598      9     0.00   0.50208   3 ;    H28-   C14-   C16-   H32
   594    564    566    599      9     0.00   0.50208   3 ;    H28-   C14-   C16-   H33
   594    564    566    600      9     0.00   0.50208   3 ;    H28-   C14-   C16-   H34
   601    602    603    621      9     0.00   0.54392   3 ;     C1-    C2-    C3-    H5
   601    602    603    622      9     0.00   0.54392   3 ;     C1-    C2-    C3-    H6
   601    602    603    623      9     0.00   0.54392   3 ;     C1-    C2-    C3-    H7
   601    602    604    605      9     0.00   2.17568   3 ;     C1-    C2-    C4-    C5
   601    602    604    624      9     0.00   0.54392   3 ;     C1-    C2-    C4-    H8
   601    602    604    625      9     0.00   0.54392   3 ;     C1-    C2-    C4-    H9
   602    604    605    606      9     0.00   2.17568   3 ;     C2-    C4-    C5-    C6
   602    604    605    607      9     0.00   2.17568   3 ;     C2-    C4-    C5-    C7
   602    604    605    626      9     0.00   0.54392   3 ;     C2-    C4-    C5-   H10
   603    602    601    617      9     0.00   0.54392   3 ;     C3-    C2-    C1-    H1
   603    602    601    618      9     0.00   0.54392   3 ;     C3-    C2-    C1-    H2
   603    602    601    619      9     0.00   0.54392   3 ;     C3-    C2-    C1-    H3
   603    602    604    605      9     0.00   2.17568   3 ;     C3-    C2-    C4-    C5
   603    602    604    624      9     0.00   0.54392   3 ;     C3-    C2-    C4-    H8
   603    602    604    625      9     0.00   0.54392   3 ;     C3-    C2-    C4-    H9
   604    602    601    617      9     0.00   0.54392   3 ;     C4-    C2-    C1-    H1
   604    602    601    618      9     0.00   0.54392   3 ;     C4-    C2-    C1-    H2
   604    602    601    619      9     0.00   0.54392   3 ;     C4-    C2-    C1-    H3
   604    602    603    621      9     0.00   0.54392   3 ;     C4-    C2-    C3-    H5
   604    602    603    622      9     0.00   0.54392   3 ;     C4-    C2-    C3-    H6
   604    602    603    623      9     0.00   0.54392   3 ;     C4-    C2-    C3-    H7
   604    605    606    627      9     0.00   0.54392   3 ;     C4-    C5-    C6-   H11
   604    605    606    628      9     0.00   0.54392   3 ;     C4-    C5-    C6-   H12
   604    605    606    629      9     0.00   0.54392   3 ;     C4-    C5-    C6-   H13
   604    605    607    608      9     0.00   2.17568   3 ;     C4-    C5-    C7-    C8
   604    605    607    630      9     0.00   0.54392   3 ;     C4-    C5-    C7-   H14
   604    605    607    631      9     0.00   0.54392   3 ;     C4-    C5-    C7-   H15
   605    604    602    620      9     0.00   0.54392   3 ;     C5-    C4-    C2-    H4
   605    607    608    609      9     0.00   2.17568   3 ;     C5-    C7-    C8-    C9
   605    607    608    610      9     0.00   2.17568   3 ;     C5-    C7-    C8-   C10
   605    607    608    632      9     0.00   0.54392   3 ;     C5-    C7-    C8-   H16
   606    605    604    624      9     0.00   0.54392   3 ;     C6-    C5-    C4-    H8
   606    605    604    625      9     0.00   0.54392   3 ;     C6-    C5-    C4-    H9
   606    605    607    608      9     0.00   2.17568   3 ;     C6-    C5-    C7-    C8
   606    605    607    630      9     0.00   0.54392   3 ;     C6-    C5-    C7-   H14
   606    605    607    631      9     0.00   0.54392   3 ;     C6-    C5-    C7-   H15
   607    605    604    624      9     0.00   0.54392   3 ;     C7-    C5-    C4-    H8
   607    605    604    625      9     0.00   0.54392   3 ;     C7-    C5-    C4-    H9
   607    605    606    627      9     0.00   0.54392   3 ;     C7-    C5-    C6-   H11
   607    605    606    628      9     0.00   0.54392   3 ;     C7-    C5-    C6-   H12
   607    605    606    629      9     0.00   0.54392   3 ;     C7-    C5-    C6-   H13
   607    608    609    633      9     0.00   0.54392   3 ;     C7-    C8-    C9-   H17
   607    608    609    634      9     0.00   0.54392   3 ;     C7-    C8-    C9-   H18
   607    608    609    635      9     0.00   0.54392   3 ;     C7-    C8-    C9-   H19
   607    608    610    611      9     0.00   2.17568   3 ;     C7-    C8-   C10-   C11
   607    608    610    636      9     0.00   0.54392   3 ;     C7-    C8-   C10-   H20
   607    608    610    637      9     0.00   0.54392   3 ;     C7-    C8-   C10-   H21
   608    607    605    626      9     0.00   0.54392   3 ;     C8-    C7-    C5-   H10
   608    610    611    612      9     0.00   2.17568   3 ;     C8-   C10-   C11-   C12
   608    610    611    613      9     0.00   2.17568   3 ;     C8-   C10-   C11-   C13
   608    610    611    638      9     0.00   0.54392   3 ;     C8-   C10-   C11-   H22
   609    608    607    630      9     0.00   0.54392   3 ;     C9-    C8-    C7-   H14
   609    608    607    631      9     0.00   0.54392   3 ;     C9-    C8-    C7-   H15
   609    608    610    611      9     0.00   2.17568   3 ;     C9-    C8-   C10-   C11
   609    608    610    636      9     0.00   0.54392   3 ;     C9-    C8-   C10-   H20
   609    608    610    637      9     0.00   0.54392   3 ;     C9-    C8-   C10-   H21
   610    608    607    630      9     0.00   0.54392   3 ;    C10-    C8-    C7-   H14
   610    608    607    631      9     0.00   0.54392   3 ;    C10-    C8-    C7-   H15
   610    608    609    633      9     0.00   0.54392   3 ;    C10-    C8-    C9-   H17
   610    608    609    634      9     0.00   0.54392   3 ;    C10-    C8-    C9-   H18
   610    608    609    635      9     0.00   0.54392   3 ;    C10-    C8-    C9-   H19
   610    611    612    639      9     0.00   0.54392   3 ;    C10-   C11-   C12-   H23
   610    611    612    640      9     0.00   0.54392   3 ;    C10-   C11-   C12-   H24
   610    611    612    641      9     0.00   0.54392   3 ;    C10-   C11-   C12-   H25
   610    611    613    614      9     0.00   2.17568   3 ;    C10-   C11-   C13-   C14
   610    611    613    642      9     0.00   0.54392   3 ;    C10-   C11-   C13-   H26
   610    611    613    643      9     0.00   0.54392   3 ;    C10-   C11-   C13-   H27
   611    610    608    632      9     0.00   0.54392   3 ;    C11-   C10-    C8-   H16
   611    613    614    615      9     0.00   2.17568   3 ;    C11-   C13-   C14-   C15
   611    613    614    616      9     0.00   2.17568   3 ;    C11-   C13-   C14-   C16
   611    613    614    644      9     0.00   0.54392   3 ;    C11-   C13-   C14-   H28
   612    611    610    636      9     0.00   0.54392   3 ;    C12-   C11-   C10-   H20
   612    611    610    637      9     0.00   0.54392   3 ;    C12-   C11-   C10-   H21
   612    611    613    614      9     0.00   2.17568   3 ;    C12-   C11-   C13-   C14
   612    611    613    642      9     0.00   0.54392   3 ;    C12-   C11-   C13-   H26
   612    611    613    643      9     0.00   0.54392   3 ;    C12-   C11-   C13-   H27
   613    611    610    636      9     0.00   0.54392   3 ;    C13-   C11-   C10-   H20
   613    611    610    637      9     0.00   0.54392   3 ;    C13-   C11-   C10-   H21
   613    611    612    639      9     0.00   0.54392   3 ;    C13-   C11-   C12-   H23
   613    611    612    640      9     0.00   0.54392   3 ;    C13-   C11-   C12-   H24
   613    611    612    641      9     0.00   0.54392   3 ;    C13-   C11-   C12-   H25
   613    614    615    645      9     0.00   0.54392   3 ;    C13-   C14-   C15-   H29
   613    614    615    646      9     0.00   0.54392   3 ;    C13-   C14-   C15-   H30
   613    614    615    647      9     0.00   0.54392   3 ;    C13-   C14-   C15-   H31
   613    614    616    648      9     0.00   0.54392   3 ;    C13-   C14-   C16-   H32
   613    614    616    649      9     0.00   0.54392   3 ;    C13-   C14-   C16-   H33
   613    614    616    650      9     0.00   0.54392   3 ;    C13-   C14-   C16-   H34
   614    613    611    638      9     0.00   0.54392   3 ;    C14-   C13-   C11-   H22
   615    614    613    642      9     0.00   0.54392   3 ;    C15-   C14-   C13-   H26
   615    614    613    643      9     0.00   0.54392   3 ;    C15-   C14-   C13-   H27
   615    614    616    648      9     0.00   0.54392   3 ;    C15-   C14-   C16-   H32
   615    614    616    649      9     0.00   0.54392   3 ;    C15-   C14-   C16-   H33
   615    614    616    650      9     0.00   0.54392   3 ;    C15-   C14-   C16-   H34
   616    614    613    642      9     0.00   0.54392   3 ;    C16-   C14-   C13-   H26
   616    614    613    643      9     0.00   0.54392   3 ;    C16-   C14-   C13-   H27
   616    614    615    645      9     0.00   0.54392   3 ;    C16-   C14-   C15-   H29
   616    614    615    646      9     0.00   0.54392   3 ;    C16-   C14-   C15-   H30
   616    614    615    647      9     0.00   0.54392   3 ;    C16-   C14-   C15-   H31
   617    601    602    620      9     0.00   0.50208   3 ;     H1-    C1-    C2-    H4
   618    601    602    620      9     0.00   0.50208   3 ;     H2-    C1-    C2-    H4
   619    601    602    620      9     0.00   0.50208   3 ;     H3-    C1-    C2-    H4
   620    602    603    621      9     0.00   0.50208   3 ;     H4-    C2-    C3-    H5
   620    602    603    622      9     0.00   0.50208   3 ;     H4-    C2-    C3-    H6
   620    602    603    623      9     0.00   0.50208   3 ;     H4-    C2-    C3-    H7
   620    602    604    624      9     0.00   0.50208   3 ;     H4-    C2-    C4-    H8
   620    602    604    625      9     0.00   0.50208   3 ;     H4-    C2-    C4-    H9
   624    604    605    626      9     0.00   0.50208   3 ;     H8-    C4-    C5-   H10
   625    604    605    626      9     0.00   0.50208   3 ;     H9-    C4-    C5-   H10
   626    605    606    627      9     0.00   0.50208   3 ;    H10-    C5-    C6-   H11
   626    605    606    628      9     0.00   0.50208   3 ;    H10-    C5-    C6-   H12
   626    605    606    629      9     0.00   0.50208   3 ;    H10-    C5-    C6-   H13
   626    605    607    630      9     0.00   0.50208   3 ;    H10-    C5-    C7-   H14
   626    605    607    631      9     0.00   0.50208   3 ;    H10-    C5-    C7-   H15
   630    607    608    632      9     0.00   0.50208   3 ;    H14-    C7-    C8-   H16
   631    607    608    632      9     0.00   0.50208   3 ;    H15-    C7-    C8-   H16
   632    608    609    633      9     0.00   0.50208   3 ;    H16-    C8-    C9-   H17
   632    608    609    634      9     0.00   0.50208   3 ;    H16-    C8-    C9-   H18
   632    608    609    635      9     0.00   0.50208   3 ;    H16-    C8-    C9-   H19
   632    608    610    636      9     0.00   0.50208   3 ;    H16-    C8-   C10-   H20
   632    608    610    637      9     0.00   0.50208   3 ;    H16-    C8-   C10-   H21
   636    610    611    638      9     0.00   0.50208   3 ;    H20-   C10-   C11-   H22
   637    610    611    638      9     0.00   0.50208   3 ;    H21-   C10-   C11-   H22
   638    611    612    639      9     0.00   0.50208   3 ;    H22-   C11-   C12-   H23
   638    611    612    640      9     0.00   0.50208   3 ;    H22-   C11-   C12-   H24
   638    611    612    641      9     0.00   0.50208   3 ;    H22-   C11-   C12-   H25
   638    611    613    642      9     0.00   0.50208   3 ;    H22-   C11-   C13-   H26
   638    611    613    643      9     0.00   0.50208   3 ;    H22-   C11-   C13-   H27
   642    613    614    644      9     0.00   0.50208   3 ;    H26-   C13-   C14-   H28
   643    613    614    644      9     0.00   0.50208   3 ;    H27-   C13-   C14-   H28
   644    614    615    645      9     0.00   0.50208   3 ;    H28-   C14-   C15-   H29
   644    614    615    646      9     0.00   0.50208   3 ;    H28-   C14-   C15-   H30
   644    614    615    647      9     0.00   0.50208   3 ;    H28-   C14-   C15-   H31
   644    614    616    648      9     0.00   0.50208   3 ;    H28-   C14-   C16-   H32
   644    614    616    649      9     0.00   0.50208   3 ;    H28-   C14-   C16-   H33
   644    614    616    650      9     0.00   0.50208   3 ;    H28-   C14-   C16-   H34
   651    652    653    671      9     0.00   0.54392   3 ;     C1-    C2-    C3-    H5
   651    652    653    672      9     0.00   0.54392   3 ;     C1-    C2-    C3-    H6
   651    652    653    673      9     0.00   0.54392   3 ;     C1-    C2-    C3-    H7
   651    652    654    655      9     0.00   2.17568   3 ;     C1-    C2-    C4-    C5
   651    652    654    674      9     0.00   0.54392   3 ;     C1-    C2-    C4-    H8
   651    652    654    675      9     0.00   0.54392   3 ;     C1-    C2-    C4-    H9
   652    654    655    656      9     0.00   2.17568   3 ;     C2-    C4-    C5-    C6
   652    654    655    657      9     0.00   2.17568   3 ;     C2-    C4-    C5-    C7
   652    654    655    676      9     0.00   0.54392   3 ;     C2-    C4-    C5-   H10
   653    652    651    667      9     0.00   0.54392   3 ;     C3-    C2-    C1-    H1
   653    652    651    668      9     0.00   0.54392   3 ;     C3-    C2-    C1-    H2
   653    652    651    669      9     0.00   0.54392   3 ;     C3-    C2-    C1-    H3
   653    652    654    655      9     0.00   2.17568   3 ;     C3-    C2-    C4-    C5
   653    652    654    674      9     0.00   0.54392   3 ;     C3-    C2-    C4-    H8
   653    652    654    675      9     0.00   0.54392   3 ;     C3-    C2-    C4-    H9
   654    652    651    667      9     0.00   0.54392   3 ;     C4-    C2-    C1-    H1
   654    652    651    668      9     0.00   0.54392   3 ;     C4-    C2-    C1-    H2
   654    652    651    669      9     0.00   0.54392   3 ;     C4-    C2-    C1-    H3
   654    652    653    671      9     0.00   0.54392   3 ;     C4-    C2-    C3-    H5
   654    652    653    672      9     0.00   0.54392   3 ;     C4-    C2-    C3-    H6
   654    652    653    673      9     0.00   0.54392   3 ;     C4-    C2-    C3-    H7
   654    655    656    677      9     0.00   0.54392   3 ;     C4-    C5-    C6-   H11
   654    655    656    678      9     0.00   0.54392   3 ;     C4-    C5-    C6-   H12
   654    655    656    679      9     0.00   0.54392   3 ;     C4-    C5-    C6-   H13
   654    655    657    658      9     0.00   2.17568   3 ;     C4-    C5-    C7-    C8
   654    655    657    680      9     0.00   0.54392   3 ;     C4-    C5-    C7-   H14
   654    655    657    681      9     0.00   0.54392   3 ;     C4-    C5-    C7-   H15
   655    654    652    670      9     0.00   0.54392   3 ;     C5-    C4-    C2-    H4
   655    657    658    659      9     0.00   2.17568   3 ;     C5-    C7-    C8-    C9
   655    657    658    660      9     0.00   2.17568   3 ;     C5-    C7-    C8-   C10
   655    657    658    682      9     0.00   0.54392   3 ;     C5-    C7-    C8-   H16
   656    655    654    674      9     0.00   0.54392   3 ;     C6-    C5-    C4-    H8
   656    655    654    675      9     0.00   0.54392   3 ;     C6-    C5-    C4-    H9
   656    655    657    658      9     0.00   2.17568   3 ;     C6-    C5-    C7-    C8
   656    655    657    680      9     0.00   0.54392   3 ;     C6-    C5-    C7-   H14
   656    655    657    681      9     0.00   0.54392   3 ;     C6-    C5-    C7-   H15
   657    655    654    674      9     0.00   0.54392   3 ;     C7-    C5-    C4-    H8
   657    655    654    675      9     0.00   0.54392   3 ;     C7-    C5-    C4-    H9
   657    655    656    677      9     0.00   0.54392   3 ;     C7-    C5-    C6-   H11
   657    655    656    678      9     0.00   0.54392   3 ;     C7-    C5-    C6-   H12
   657    655    656    679      9     0.00   0.54392   3 ;     C7-    C5-    C6-   H13
   657    658    659    683      9     0.00   0.54392   3 ;     C7-    C8-    C9-   H17
   657    658    659    684      9     0.00   0.54392   3 ;     C7-    C8-    C9-   H18
   657    658    659    685      9     0.00   0.54392   3 ;     C7-    C8-    C9-   H19
   657    658    660    661      9     0.00   2.17568   3 ;     C7-    C8-   C10-   C11
   657    658    660    686      9     0.00   0.54392   3 ;     C7-    C8-   C10-   H20
   657    658    660    687      9     0.00   0.54392   3 ;     C7-    C8-   C10-   H21
   658    657    655    676      9     0.00   0.54392   3 ;     C8-    C7-    C5-   H10
   658    660    661    662      9     0.00   2.17568   3 ;     C8-   C10-   C11-   C12
   658    660    661    663      9     0.00   2.17568   3 ;     C8-   C10-   C11-   C13
   658    660    661    688      9     0.00   0.54392   3 ;     C8-   C10-   C11-   H22
   659    658    657    680      9     0.00   0.54392   3 ;     C9-    C8-    C7-   H14
   659    658    657    681      9     0.00   0.54392   3 ;     C9-    C8-    C7-   H15
   659    658    660    661      9     0.00   2.17568   3 ;     C9-    C8-   C10-   C11
   659    658    660    686      9     0.00   0.54392   3 ;     C9-    C8-   C10-   H20
   659    658    660    687      9     0.00   0.54392   3 ;     C9-    C8-   C10-   H21
   660    658    657    680      9     0.00   0.54392   3 ;    C10-    C8-    C7-   H14
   660    658    657    681      9     0.00   0.54392   3 ;    C10-    C8-    C7-   H15
   660    658    659    683      9     0.00   0.54392   3 ;    C10-    C8-    C9-   H17
   660    658    659    684      9     0.00   0.54392   3 ;    C10-    C8-    C9-   H18
   660    658    659    685      9     0.00   0.54392   3 ;    C10-    C8-    C9-   H19
   660    661    662    689      9     0.00   0.54392   3 ;    C10-   C11-   C12-   H23
   660    661    662    690      9     0.00   0.54392   3 ;    C10-   C11-   C12-   H24
   660    661    662    691      9     0.00   0.54392   3 ;    C10-   C11-   C12-   H25
   660    661    663    664      9     0.00   2.17568   3 ;    C10-   C11-   C13-   C14
   660    661    663    692      9     0.00   0.54392   3 ;    C10-   C11-   C13-   H26
   660    661    663    693      9     0.00   0.54392   3 ;    C10-   C11-   C13-   H27
   661    660    658    682      9     0.00   0.54392   3 ;    C11-   C10-    C8-   H16
   661    663    664    665      9     0.00   2.17568   3 ;    C11-   C13-   C14-   C15
   661    663    664    666      9     0.00   2.17568   3 ;    C11-   C13-   C14-   C16
   661    663    664    694      9     0.00   0.54392   3 ;    C11-   C13-   C14-   H28
   662    661    660    686      9     0.00   0.54392   3 ;    C12-   C11-   C10-   H20
   662    661    660    687      9     0.00   0.54392   3 ;    C12-   C11-   C10-   H21
   662    661    663    664      9     0.00   2.17568   3 ;    C12-   C11-   C13-   C14
   662    661    663    692      9     0.00   0.54392   3 ;    C12-   C11-   C13-   H26
   662    661    663    693      9     0.00   0.54392   3 ;    C12-   C11-   C13-   H27
   663    661    660    686      9     0.00   0.54392   3 ;    C13-   C11-   C10-   H20
   663    661    660    687      9     0.00   0.54392   3 ;    C13-   C11-   C10-   H21
   663    661    662    689      9     0.00   0.54392   3 ;    C13-   C11-   C12-   H23
   663    661    662    690      9     0.00   0.54392   3 ;    C13-   C11-   C12-   H24
   663    661    662    691      9     0.00   0.54392   3 ;    C13-   C11-   C12-   H25
   663    664    665    695      9     0.00   0.54392   3 ;    C13-   C14-   C15-   H29
   663    664    665    696      9     0.00   0.54392   3 ;    C13-   C14-   C15-   H30
   663    664    665    697      9     0.00   0.54392   3 ;    C13-   C14-   C15-   H31
   663    664    666    698      9     0.00   0.54392   3 ;    C13-   C14-   C16-   H32
   663    664    666    699      9     0.00   0.54392   3 ;    C13-   C14-   C16-   H33
   663    664    666    700      9     0.00   0.54392   3 ;    C13-   C14-   C16-   H34
   664    663    661    688      9     0.00   0.54392   3 ;    C14-   C13-   C11-   H22
   665    664    663    692      9     0.00   0.54392   3 ;    C15-   C14-   C13-   H26
   665    664    663    693      9     0.00   0.54392   3 ;    C15-   C14-   C13-   H27
   665    664    666    698      9     0.00   0.54392   3 ;    C15-   C14-   C16-   H32
   665    664    666    699      9     0.00   0.54392   3 ;    C15-   C14-   C16-   H33
   665    664    666    700      9     0.00   0.54392   3 ;    C15-   C14-   C16-   H34
   666    664    663    692      9     0.00   0.54392   3 ;    C16-   C14-   C13-   H26
   666    664    663    693      9     0.00   0.54392   3 ;    C16-   C14-   C13-   H27
   666    664    665    695      9     0.00   0.54392   3 ;    C16-   C14-   C15-   H29
   666    664    665    696      9     0.00   0.54392   3 ;    C16-   C14-   C15-   H30
   666    664    665    697      9     0.00   0.54392   3 ;    C16-   C14-   C15-   H31
   667    651    652    670      9     0.00   0.50208   3 ;     H1-    C1-    C2-    H4
   668    651    652    670      9     0.00   0.50208   3 ;     H2-    C1-    C2-    H4
   669    651    652    670      9     0.00   0.50208   3 ;     H3-    C1-    C2-    H4
   670    652    653    671      9     0.00   0.50208   3 ;     H4-    C2-    C3-    H5
   670    652    653    672      9     0.00   0.50208   3 ;     H4-    C2-    C3-    H6
   670    652    653    673      9     0.00   0.50208   3 ;     H4-    C2-    C3-    H7
   670    652    654    674      9     0.00   0.50208   3 ;     H4-    C2-    C4-    H8
   670    652    654    675      9     0.00   0.50208   3 ;     H4-    C2-    C4-    H9
   674    654    655    676      9     0.00   0.50208   3 ;     H8-    C4-    C5-   H10
   675    654    655    676      9     0.00   0.50208   3 ;     H9-    C4-    C5-   H10
   676    655    656    677      9     0.00   0.50208   3 ;    H10-    C5-    C6-   H11
   676    655    656    678      9     0.00   0.50208   3 ;    H10-    C5-    C6-   H12
   676    655    656    679      9     0.00   0.50208   3 ;    H10-    C5-    C6-   H13
   676    655    657    680      9     0.00   0.50208   3 ;    H10-    C5-    C7-   H14
   676    655    657    681      9     0.00   0.50208   3 ;    H10-    C5-    C7-   H15
   680    657    658    682      9     0.00   0.50208   3 ;    H14-    C7-    C8-   H16
   681    657    658    682      9     0.00   0.50208   3 ;    H15-    C7-    C8-   H16
   682    658    659    683      9     0.00   0.50208   3 ;    H16-    C8-    C9-   H17
   682    658    659    684      9     0.00   0.50208   3 ;    H16-    C8-    C9-   H18
   682    658    659    685      9     0.00   0.50208   3 ;    H16-    C8-    C9-   H19
   682    658    660    686      9     0.00   0.50208   3 ;    H16-    C8-   C10-   H20
   682    658    660    687      9     0.00   0.50208   3 ;    H16-    C8-   C10-   H21
   686    660    661    688      9     0.00   0.50208   3 ;    H20-   C10-   C11-   H22
   687    660    661    688      9     0.00   0.50208   3 ;    H21-   C10-   C11-   H22
   688    661    662    689      9     0.00   0.50208   3 ;    H22-   C11-   C12-   H23
   688    661    662    690      9     0.00   0.50208   3 ;    H22-   C11-   C12-   H24
   688    661    662    691      9     0.00   0.50208   3 ;    H22-   C11-   C12-   H25
   688    661    663    692      9     0.00   0.50208   3 ;    H22-   C11-   C13-   H26
   688    661    663    693      9     0.00   0.50208   3 ;    H22-   C11-   C13-   H27
   692    663    664    694      9     0.00   0.50208   3 ;    H26-   C13-   C14-   H28
   693    663    664    694      9     0.00   0.50208   3 ;    H27-   C13-   C14-   H28
   694    664    665    695      9     0.00   0.50208   3 ;    H28-   C14-   C15-   H29
   694    664    665    696      9     0.00   0.50208   3 ;    H28-   C14-   C15-   H30
   694    664    665    697      9     0.00   0.50208   3 ;    H28-   C14-   C15-   H31
   694    664    666    698      9     0.00   0.50208   3 ;    H28-   C14-   C16-   H32
   694    664    666    699      9     0.00   0.50208   3 ;    H28-   C14-   C16-   H33
   694    664    666    700      9     0.00   0.50208   3 ;    H28-   C14-   C16-   H34
   701    702    703    721      9     0.00   0.54392   3 ;     C1-    C2-    C3-    H5
   701    702    703    722      9     0.00   0.54392   3 ;     C1-    C2-    C3-    H6
   701    702    703    723      9     0.00   0.54392   3 ;     C1-    C2-    C3-    H7
   701    702    704    705      9     0.00   2.17568   3 ;     C1-    C2-    C4-    C5
   701    702    704    724      9     0.00   0.54392   3 ;     C1-    C2-    C4-    H8
   701    702    704    725      9     0.00   0.54392   3 ;     C1-    C2-    C4-    H9
   702    704    705    706      9     0.00   2.17568   3 ;     C2-    C4-    C5-    C6
   702    704    705    707      9     0.00   2.17568   3 ;     C2-    C4-    C5-    C7
   702    704    705    726      9     0.00   0.54392   3 ;     C2-    C4-    C5-   H10
   703    702    701    717      9     0.00   0.54392   3 ;     C3-    C2-    C1-    H1
   703    702    701    718      9     0.00   0.54392   3 ;     C3-    C2-    C1-    H2
   703    702    701    719      9     0.00   0.54392   3 ;     C3-    C2-    C1-    H3
   703    702    704    705      9     0.00   2.17568   3 ;     C3-    C2-    C4-    C5
   703    702    704    724      9     0.00   0.54392   3 ;     C3-    C2-    C4-    H8
   703    702    704    725      9     0.00   0.54392   3 ;     C3-    C2-    C4-    H9
   704    702    701    717      9     0.00   0.54392   3 ;     C4-    C2-    C1-    H1
   704    702    701    718      9     0.00   0.54392   3 ;     C4-    C2-    C1-    H2
   704    702    701    719      9     0.00   0.54392   3 ;     C4-    C2-    C1-    H3
   704    702    703    721      9     0.00   0.54392   3 ;     C4-    C2-    C3-    H5
   704    702    703    722      9     0.00   0.54392   3 ;     C4-    C2-    C3-    H6
   704    702    703    723      9     0.00   0.54392   3 ;     C4-    C2-    C3-    H7
   704    705    706    727      9     0.00   0.54392   3 ;     C4-    C5-    C6-   H11
   704    705    706    728      9     0.00   0.54392   3 ;     C4-    C5-    C6-   H12
   704    705    706    729      9     0.00   0.54392   3 ;     C4-    C5-    C6-   H13
   704    705    707    708      9     0.00   2.17568   3 ;     C4-    C5-    C7-    C8
   704    705    707    730      9     0.00   0.54392   3 ;     C4-    C5-    C7-   H14
   704    705    707    731      9     0.00   0.54392   3 ;     C4-    C5-    C7-   H15
   705    704    702    720      9     0.00   0.54392   3 ;     C5-    C4-    C2-    H4
   705    707    708    709      9     0.00   2.17568   3 ;     C5-    C7-    C8-    C9
   705    707    708    710      9     0.00   2.17568   3 ;     C5-    C7-    C8-   C10
   705    707    708    732      9     0.00   0.54392   3 ;     C5-    C7-    C8-   H16
   706    705    704    724      9     0.00   0.54392   3 ;     C6-    C5-    C4-    H8
   706    705    704    725      9     0.00   0.54392   3 ;     C6-    C5-    C4-    H9
   706    705    707    708      9     0.00   2.17568   3 ;     C6-    C5-    C7-    C8
   706    705    707    730      9     0.00   0.54392   3 ;     C6-    C5-    C7-   H14
   706    705    707    731      9     0.00   0.54392   3 ;     C6-    C5-    C7-   H15
   707    705    704    724      9     0.00   0.54392   3 ;     C7-    C5-    C4-    H8
   707    705    704    725      9     0.00   0.54392   3 ;     C7-    C5-    C4-    H9
   707    705    706    727      9     0.00   0.54392   3 ;     C7-    C5-    C6-   H11
   707    705    706    728      9     0.00   0.54392   3 ;     C7-    C5-    C6-   H12
   707    705    706    729      9     0.00   0.54392   3 ;     C7-    C5-    C6-   H13
   707    708    709    733      9     0.00   0.54392   3 ;     C7-    C8-    C9-   H17
   707    708    709    734      9     0.00   0.54392   3 ;     C7-    C8-    C9-   H18
   707    708    709    735      9     0.00   0.54392   3 ;     C7-    C8-    C9-   H19
   707    708    710    711      9     0.00   2.17568   3 ;     C7-    C8-   C10-   C11
   707    708    710    736      9     0.00   0.54392   3 ;     C7-    C8-   C10-   H20
   707    708    710    737      9     0.00   0.54392   3 ;     C7-    C8-   C10-   H21
   708    707    705    726      9     0.00   0.54392   3 ;     C8-    C7-    C5-   H10
   708    710    711    712      9     0.00   2.17568   3 ;     C8-   C10-   C11-   C12
   708    710    711    713      9     0.00   2.17568   3 ;     C8-   C10-   C11-   C13
   708    710    711    738      9     0.00   0.54392   3 ;     C8-   C10-   C11-   H22
   709    708    707    730      9     0.00   0.54392   3 ;     C9-    C8-    C7-   H14
   709    708    707    731      9     0.00   0.54392   3 ;     C9-    C8-    C7-   H15
   709    708    710    711      9     0.00   2.17568   3 ;     C9-    C8-   C10-   C11
   709    708    710    736      9     0.00   0.54392   3 ;     C9-    C8-   C10-   H20
   709    708    710    737      9     0.00   0.54392   3 ;     C9-    C8-   C10-   H21
   710    708    707    730      9     0.00   0.54392   3 ;    C10-    C8-    C7-   H14
   710    708    707    731      9     0.00   0.54392   3 ;    C10-    C8-    C7-   H15
   710    708    709    733      9     0.00   0.54392   3 ;    C10-    C8-    C9-   H17
   710    708    709    734      9     0.00   0.54392   3 ;    C10-    C8-    C9-   H18
   710    708    709    735      9     0.00   0.54392   3 ;    C10-    C8-    C9-   H19
   710    711    712    739      9     0.00   0.54392   3 ;    C10-   C11-   C12-   H23
   710    711    712    740      9     0.00   0.54392   3 ;    C10-   C11-   C12-   H24
   710    711    712    741      9     0.00   0.54392   3 ;    C10-   C11-   C12-   H25
   710    711    713    714      9     0.00   2.17568   3 ;    C10-   C11-   C13-   C14
   710    711    713    742      9     0.00   0.54392   3 ;    C10-   C11-   C13-   H26
   710    711    713    743      9     0.00   0.54392   3 ;    C10-   C11-   C13-   H27
   711    710    708    732      9     0.00   0.54392   3 ;    C11-   C10-    C8-   H16
   711    713    714    715      9     0.00   2.17568   3 ;    C11-   C13-   C14-   C15
   711    713    714    716      9     0.00   2.17568   3 ;    C11-   C13-   C14-   C16
   711    713    714    744      9     0.00   0.54392   3 ;    C11-   C13-   C14-   H28
   712    711    710    736      9     0.00   0.54392   3 ;    C12-   C11-   C10-   H20
   712    711    710    737      9     0.00   0.54392   3 ;    C12-   C11-   C10-   H21
   712    711    713    714      9     0.00   2.17568   3 ;    C12-   C11-   C13-   C14
   712    711    713    742      9     0.00   0.54392   3 ;    C12-   C11-   C13-   H26
   712    711    713    743      9     0.00   0.54392   3 ;    C12-   C11-   C13-   H27
   713    711    710    736      9     0.00   0.54392   3 ;    C13-   C11-   C10-   H20
   713    711    710    737      9     0.00   0.54392   3 ;    C13-   C11-   C10-   H21
   713    711    712    739      9     0.00   0.54392   3 ;    C13-   C11-   C12-   H23
   713    711    712    740      9     0.00   0.54392   3 ;    C13-   C11-   C12-   H24
   713    711    712    741      9     0.00   0.54392   3 ;    C13-   C11-   C12-   H25
   713    714    715    745      9     0.00   0.54392   3 ;    C13-   C14-   C15-   H29
   713    714    715    746      9     0.00   0.54392   3 ;    C13-   C14-   C15-   H30
   713    714    715    747      9     0.00   0.54392   3 ;    C13-   C14-   C15-   H31
   713    714    716    748      9     0.00   0.54392   3 ;    C13-   C14-   C16-   H32
   713    714    716    749      9     0.00   0.54392   3 ;    C13-   C14-   C16-   H33
   713    714    716    750      9     0.00   0.54392   3 ;    C13-   C14-   C16-   H34
   714    713    711    738      9     0.00   0.54392   3 ;    C14-   C13-   C11-   H22
   715    714    713    742      9     0.00   0.54392   3 ;    C15-   C14-   C13-   H26
   715    714    713    743      9     0.00   0.54392   3 ;    C15-   C14-   C13-   H27
   715    714    716    748      9     0.00   0.54392   3 ;    C15-   C14-   C16-   H32
   715    714    716    749      9     0.00   0.54392   3 ;    C15-   C14-   C16-   H33
   715    714    716    750      9     0.00   0.54392   3 ;    C15-   C14-   C16-   H34
   716    714    713    742      9     0.00   0.54392   3 ;    C16-   C14-   C13-   H26
   716    714    713    743      9     0.00   0.54392   3 ;    C16-   C14-   C13-   H27
   716    714    715    745      9     0.00   0.54392   3 ;    C16-   C14-   C15-   H29
   716    714    715    746      9     0.00   0.54392   3 ;    C16-   C14-   C15-   H30
   716    714    715    747      9     0.00   0.54392   3 ;    C16-   C14-   C15-   H31
   717    701    702    720      9     0.00   0.50208   3 ;     H1-    C1-    C2-    H4
   718    701    702    720      9     0.00   0.50208   3 ;     H2-    C1-    C2-    H4
   719    701    702    720      9     0.00   0.50208   3 ;     H3-    C1-    C2-    H4
   720    702    703    721      9     0.00   0.50208   3 ;     H4-    C2-    C3-    H5
   720    702    703    722      9     0.00   0.50208   3 ;     H4-    C2-    C3-    H6
   720    702    703    723      9     0.00   0.50208   3 ;     H4-    C2-    C3-    H7
   720    702    704    724      9     0.00   0.50208   3 ;     H4-    C2-    C4-    H8
   720    702    704    725      9     0.00   0.50208   3 ;     H4-    C2-    C4-    H9
   724    704    705    726      9     0.00   0.50208   3 ;     H8-    C4-    C5-   H10
   725    704    705    726      9     0.00   0.50208   3 ;     H9-    C4-    C5-   H10
   726    705    706    727      9     0.00   0.50208   3 ;    H10-    C5-    C6-   H11
   726    705    706    728      9     0.00   0.50208   3 ;    H10-    C5-    C6-   H12
   726    705    706    729      9     0.00   0.50208   3 ;    H10-    C5-    C6-   H13
   726    705    707    730      9     0.00   0.50208   3 ;    H10-    C5-    C7-   H14
   726    705    707    731      9     0.00   0.50208   3 ;    H10-    C5-    C7-   H15
   730    707    708    732      9     0.00   0.50208   3 ;    H14-    C7-    C8-   H16
   731    707    708    732      9     0.00   0.50208   3 ;    H15-    C7-    C8-   H16
   732    708    709    733      9     0.00   0.50208   3 ;    H16-    C8-    C9-   H17
   732    708    709    734      9     0.00   0.50208   3 ;    H16-    C8-    C9-   H18
   732    708    709    735      9     0.00   0.50208   3 ;    H16-    C8-    C9-   H19
   732    708    710    736      9     0.00   0.50208   3 ;    H16-    C8-   C10-   H20
   732    708    710    737      9     0.00   0.50208   3 ;    H16-    C8-   C10-   H21
   736    710    711    738      9     0.00   0.50208   3 ;    H20-   C10-   C11-   H22
   737    710    711    738      9     0.00   0.50208   3 ;    H21-   C10-   C11-   H22
   738    711    712    739      9     0.00   0.50208   3 ;    H22-   C11-   C12-   H23
   738    711    712    740      9     0.00   0.50208   3 ;    H22-   C11-   C12-   H24
   738    711    712    741      9     0.00   0.50208   3 ;    H22-   C11-   C12-   H25
   738    711    713    742      9     0.00   0.50208   3 ;    H22-   C11-   C13-   H26
   738    711    713    743      9     0.00   0.50208   3 ;    H22-   C11-   C13-   H27
   742    713    714    744      9     0.00   0.50208   3 ;    H26-   C13-   C14-   H28
   743    713    714    744      9     0.00   0.50208   3 ;    H27-   C13-   C14-   H28
   744    714    715    745      9     0.00   0.50208   3 ;    H28-   C14-   C15-   H29
   744    714    715    746      9     0.00   0.50208   3 ;    H28-   C14-   C15-   H30
   744    714    715    747      9     0.00   0.50208   3 ;    H28-   C14-   C15-   H31
   744    714    716    748      9     0.00   0.50208   3 ;    H28-   C14-   C16-   H32
   744    714    716    749      9     0.00   0.50208   3 ;    H28-   C14-   C16-   H33
   744    714    716    750      9     0.00   0.50208   3 ;    H28-   C14-   C16-   H34
   751    752    753    771      9     0.00   0.54392   3 ;     C1-    C2-    C3-    H5
   751    752    753    772      9     0.00   0.54392   3 ;     C1-    C2-    C3-    H6
   751    752    753    773      9     0.00   0.54392   3 ;     C1-    C2-    C3-    H7
   751    752    754    755      9     0.00   2.17568   3 ;     C1-    C2-    C4-    C5
   751    752    754    774      9     0.00   0.54392   3 ;     C1-    C2-    C4-    H8
   751    752    754    775      9     0.00   0.54392   3 ;     C1-    C2-    C4-    H9
   752    754    755    756      9     0.00   2.17568   3 ;     C2-    C4-    C5-    C6
   752    754    755    757      9     0.00   2.17568   3 ;     C2-    C4-    C5-    C7
   752    754    755    776      9     0.00   0.54392   3 ;     C2-    C4-    C5-   H10
   753    752    751    767      9     0.00   0.54392   3 ;     C3-    C2-    C1-    H1
   753    752    751    768      9     0.00   0.54392   3 ;     C3-    C2-    C1-    H2
   753    752    751    769      9     0.00   0.54392   3 ;     C3-    C2-    C1-    H3
   753    752    754    755      9     0.00   2.17568   3 ;     C3-    C2-    C4-    C5
   753    752    754    774      9     0.00   0.54392   3 ;     C3-    C2-    C4-    H8
   753    752    754    775      9     0.00   0.54392   3 ;     C3-    C2-    C4-    H9
   754    752    751    767      9     0.00   0.54392   3 ;     C4-    C2-    C1-    H1
   754    752    751    768      9     0.00   0.54392   3 ;     C4-    C2-    C1-    H2
   754    752    751    769      9     0.00   0.54392   3 ;     C4-    C2-    C1-    H3
   754    752    753    771      9     0.00   0.54392   3 ;     C4-    C2-    C3-    H5
   754    752    753    772      9     0.00   0.54392   3 ;     C4-    C2-    C3-    H6
   754    752    753    773      9     0.00   0.54392   3 ;     C4-    C2-    C3-    H7
   754    755    756    777      9     0.00   0.54392   3 ;     C4-    C5-    C6-   H11
   754    755    756    778      9     0.00   0.54392   3 ;     C4-    C5-    C6-   H12
   754    755    756    779      9     0.00   0.54392   3 ;     C4-    C5-    C6-   H13
   754    755    757    758      9     0.00   2.17568   3 ;     C4-    C5-    C7-    C8
   754    755    757    780      9     0.00   0.54392   3 ;     C4-    C5-    C7-   H14
   754    755    757    781      9     0.00   0.54392   3 ;     C4-    C5-    C7-   H15
   755    754    752    770      9     0.00   0.54392   3 ;     C5-    C4-    C2-    H4
   755    757    758    759      9     0.00   2.17568   3 ;     C5-    C7-    C8-    C9
   755    757    758    760      9     0.00   2.17568   3 ;     C5-    C7-    C8-   C10
   755    757    758    782      9     0.00   0.54392   3 ;     C5-    C7-    C8-   H16
   756    755    754    774      9     0.00   0.54392   3 ;     C6-    C5-    C4-    H8
   756    755    754    775      9     0.00   0.54392   3 ;     C6-    C5-    C4-    H9
   756    755    757    758      9     0.00   2.17568   3 ;     C6-    C5-    C7-    C8
   756    755    757    780      9     0.00   0.54392   3 ;     C6-    C5-    C7-   H14
   756    755    757    781      9     0.00   0.54392   3 ;     C6-    C5-    C7-   H15
   757    755    754    774      9     0.00   0.54392   3 ;     C7-    C5-    C4-    H8
   757    755    754    775      9     0.00   0.54392   3 ;     C7-    C5-    C4-    H9
   757    755    756    777      9     0.00   0.54392   3 ;     C7-    C5-    C6-   H11
   757    755    756    778      9     0.00   0.54392   3 ;     C7-    C5-    C6-   H12
   757    755    756    779      9     0.00   0.54392   3 ;     C7-    C5-    C6-   H13
   757    758    759    783      9     0.00   0.54392   3 ;     C7-    C8-    C9-   H17
   757    758    759    784      9     0.00   0.54392   3 ;     C7-    C8-    C9-   H18
   757    758    759    785      9     0.00   0.54392   3 ;     C7-    C8-    C9-   H19
   757    758    760    761      9     0.00   2.17568   3 ;     C7-    C8-   C10-   C11
   757    758    760    786      9     0.00   0.54392   3 ;     C7-    C8-   C10-   H20
   757    758    760    787      9     0.00   0.54392   3 ;     C7-    C8-   C10-   H21
   758    757    755    776      9     0.00   0.54392   3 ;     C8-    C7-    C5-   H10
   758    760    761    762      9     0.00   2.17568   3 ;     C8-   C10-   C11-   C12
   758    760    761    763      9     0.00   2.17568   3 ;     C8-   C10-   C11-   C13
   758    760    761    788      9     0.00   0.54392   3 ;     C8-   C10-   C11-   H22
   759    758    757    780      9     0.00   0.54392   3 ;     C9-    C8-    C7-   H14
   759    758    757    781      9     0.00   0.54392   3 ;     C9-    C8-    C7-   H15
   759    758    760    761      9     0.00   2.17568   3 ;     C9-    C8-   C10-   C11
   759    758    760    786      9     0.00   0.54392   3 ;     C9-    C8-   C10-   H20
   759    758    760    787      9     0.00   0.54392   3 ;     C9-    C8-   C10-   H21
   760    758    757    780      9     0.00   0.54392   3 ;    C10-    C8-    C7-   H14
   760    758    757    781      9     0.00   0.54392   3 ;    C10-    C8-    C7-   H15
   760    758    759    783      9     0.00   0.54392   3 ;    C10-    C8-    C9-   H17
   760    758    759    784      9     0.00   0.54392   3 ;    C10-    C8-    C9-   H18
   760    758    759    785      9     0.00   0.54392   3 ;    C10-    C8-    C9-   H19
   760    761    762    789      9     0.00   0.54392   3 ;    C10-   C11-   C12-   H23
   760    761    762    790      9     0.00   0.54392   3 ;    C10-   C11-   C12-   H24
   760    761    762    791      9     0.00   0.54392   3 ;    C10-   C11-   C12-   H25
   760    761    763    764      9     0.00   2.17568   3 ;    C10-   C11-   C13-   C14
   760    761    763    792      9     0.00   0.54392   3 ;    C10-   C11-   C13-   H26
   760    761    763    793      9     0.00   0.54392   3 ;    C10-   C11-   C13-   H27
   761    760    758    782      9     0.00   0.54392   3 ;    C11-   C10-    C8-   H16
   761    763    764    765      9     0.00   2.17568   3 ;    C11-   C13-   C14-   C15
   761    763    764    766      9     0.00   2.17568   3 ;    C11-   C13-   C14-   C16
   761    763    764    794      9     0.00   0.54392   3 ;    C11-   C13-   C14-   H28
   762    761    760    786      9     0.00   0.54392   3 ;    C12-   C11-   C10-   H20
   762    761    760    787      9     0.00   0.54392   3 ;    C12-   C11-   C10-   H21
   762    761    763    764      9     0.00   2.17568   3 ;    C12-   C11-   C13-   C14
   762    761    763    792      9     0.00   0.54392   3 ;    C12-   C11-   C13-   H26
   762    761    763    793      9     0.00   0.54392   3 ;    C12-   C11-   C13-   H27
   763    761    760    786      9     0.00   0.54392   3 ;    C13-   C11-   C10-   H20
   763    761    760    787      9     0.00   0.54392   3 ;    C13-   C11-   C10-   H21
   763    761    762    789      9     0.00   0.54392   3 ;    C13-   C11-   C12-   H23
   763    761    762    790      9     0.00   0.54392   3 ;    C13-   C11-   C12-   H24
   763    761    762    791      9     0.00   0.54392   3 ;    C13-   C11-   C12-   H25
   763    764    765    795      9     0.00   0.54392   3 ;    C13-   C14-   C15-   H29
   763    764    765    796      9     0.00   0.54392   3 ;    C13-   C14-   C15-   H30
   763    764    765    797      9     0.00   0.54392   3 ;    C13-   C14-   C15-   H31
   763    764    766    798      9     0.00   0.54392   3 ;    C13-   C14-   C16-   H32
   763    764    766    799      9     0.00   0.54392   3 ;    C13-   C14-   C16-   H33
   763    764    766    800      9     0.00   0.54392   3 ;    C13-   C14-   C16-   H34
   764    763    761    788      9     0.00   0.54392   3 ;    C14-   C13-   C11-   H22
   765    764    763    792      9     0.00   0.54392   3 ;    C15-   C14-   C13-   H26
   765    764    763    793      9     0.00   0.54392   3 ;    C15-   C14-   C13-   H27
   765    764    766    798      9     0.00   0.54392   3 ;    C15-   C14-   C16-   H32
   765    764    766    799      9     0.00   0.54392   3 ;    C15-   C14-   C16-   H33
   765    764    766    800      9     0.00   0.54392   3 ;    C15-   C14-   C16-   H34
   766    764    763    792      9     0.00   0.54392   3 ;    C16-   C14-   C13-   H26
   766    764    763    793      9     0.00   0.54392   3 ;    C16-   C14-   C13-   H27
   766    764    765    795      9     0.00   0.54392   3 ;    C16-   C14-   C15-   H29
   766    764    765    796      9     0.00   0.54392   3 ;    C16-   C14-   C15-   H30
   766    764    765    797      9     0.00   0.54392   3 ;    C16-   C14-   C15-   H31
   767    751    752    770      9     0.00   0.50208   3 ;     H1-    C1-    C2-    H4
   768    751    752    770      9     0.00   0.50208   3 ;     H2-    C1-    C2-    H4
   769    751    752    770      9     0.00   0.50208   3 ;     H3-    C1-    C2-    H4
   770    752    753    771      9     0.00   0.50208   3 ;     H4-    C2-    C3-    H5
   770    752    753    772      9     0.00   0.50208   3 ;     H4-    C2-    C3-    H6
   770    752    753    773      9     0.00   0.50208   3 ;     H4-    C2-    C3-    H7
   770    752    754    774      9     0.00   0.50208   3 ;     H4-    C2-    C4-    H8
   770    752    754    775      9     0.00   0.50208   3 ;     H4-    C2-    C4-    H9
   774    754    755    776      9     0.00   0.50208   3 ;     H8-    C4-    C5-   H10
   775    754    755    776      9     0.00   0.50208   3 ;     H9-    C4-    C5-   H10
   776    755    756    777      9     0.00   0.50208   3 ;    H10-    C5-    C6-   H11
   776    755    756    778      9     0.00   0.50208   3 ;    H10-    C5-    C6-   H12
   776    755    756    779      9     0.00   0.50208   3 ;    H10-    C5-    C6-   H13
   776    755    757    780      9     0.00   0.50208   3 ;    H10-    C5-    C7-   H14
   776    755    757    781      9     0.00   0.50208   3 ;    H10-    C5-    C7-   H15
   780    757    758    782      9     0.00   0.50208   3 ;    H14-    C7-    C8-   H16
   781    757    758    782      9     0.00   0.50208   3 ;    H15-    C7-    C8-   H16
   782    758    759    783      9     0.00   0.50208   3 ;    H16-    C8-    C9-   H17
   782    758    759    784      9     0.00   0.50208   3 ;    H16-    C8-    C9-   H18
   782    758    759    785      9     0.00   0.50208   3 ;    H16-    C8-    C9-   H19
   782    758    760    786      9     0.00   0.50208   3 ;    H16-    C8-   C10-   H20
   782    758    760    787      9     0.00   0.50208   3 ;    H16-    C8-   C10-   H21
   786    760    761    788      9     0.00   0.50208   3 ;    H20-   C10-   C11-   H22
   787    760    761    788      9     0.00   0.50208   3 ;    H21-   C10-   C11-   H22
   788    761    762    789      9     0.00   0.50208   3 ;    H22-   C11-   C12-   H23
   788    761    762    790      9     0.00   0.50208   3 ;    H22-   C11-   C12-   H24
   788    761    762    791      9     0.00   0.50208   3 ;    H22-   C11-   C12-   H25
   788    761    763    792      9     0.00   0.50208   3 ;    H22-   C11-   C13-   H26
   788    761    763    793      9     0.00   0.50208   3 ;    H22-   C11-   C13-   H27
   792    763    764    794      9     0.00   0.50208   3 ;    H26-   C13-   C14-   H28
   793    763    764    794      9     0.00   0.50208   3 ;    H27-   C13-   C14-   H28
   794    764    765    795      9     0.00   0.50208   3 ;    H28-   C14-   C15-   H29
   794    764    765    796      9     0.00   0.50208   3 ;    H28-   C14-   C15-   H30
   794    764    765    797      9     0.00   0.50208   3 ;    H28-   C14-   C15-   H31
   794    764    766    798      9     0.00   0.50208   3 ;    H28-   C14-   C16-   H32
   794    764    766    799      9     0.00   0.50208   3 ;    H28-   C14-   C16-   H33
   794    764    766    800      9     0.00   0.50208   3 ;    H28-   C14-   C16-   H34
   801    802    803    821      9     0.00   0.54392   3 ;     C1-    C2-    C3-    H5
   801    802    803    822      9     0.00   0.54392   3 ;     C1-    C2-    C3-    H6
   801    802    803    823      9     0.00   0.54392   3 ;     C1-    C2-    C3-    H7
   801    802    804    805      9     0.00   2.17568   3 ;     C1-    C2-    C4-    C5
   801    802    804    824      9     0.00   0.54392   3 ;     C1-    C2-    C4-    H8
   801    802    804    825      9     0.00   0.54392   3 ;     C1-    C2-    C4-    H9
   802    804    805    806      9     0.00   2.17568   3 ;     C2-    C4-    C5-    C6
   802    804    805    807      9     0.00   2.17568   3 ;     C2-    C4-    C5-    C7
   802    804    805    826      9     0.00   0.54392   3 ;     C2-    C4-    C5-   H10
   803    802    801    817      9     0.00   0.54392   3 ;     C3-    C2-    C1-    H1
   803    802    801    818      9     0.00   0.54392   3 ;     C3-    C2-    C1-    H2
   803    802    801    819      9     0.00   0.54392   3 ;     C3-    C2-    C1-    H3
   803    802    804    805      9     0.00   2.17568   3 ;     C3-    C2-    C4-    C5
   803    802    804    824      9     0.00   0.54392   3 ;     C3-    C2-    C4-    H8
   803    802    804    825      9     0.00   0.54392   3 ;     C3-    C2-    C4-    H9
   804    802    801    817      9     0.00   0.54392   3 ;     C4-    C2-    C1-    H1
   804    802    801    818      9     0.00   0.54392   3 ;     C4-    C2-    C1-    H2
   804    802    801    819      9     0.00   0.54392   3 ;     C4-    C2-    C1-    H3
   804    802    803    821      9     0.00   0.54392   3 ;     C4-    C2-    C3-    H5
   804    802    803    822      9     0.00   0.54392   3 ;     C4-    C2-    C3-    H6
   804    802    803    823      9     0.00   0.54392   3 ;     C4-    C2-    C3-    H7
   804    805    806    827      9     0.00   0.54392   3 ;     C4-    C5-    C6-   H11
   804    805    806    828      9     0.00   0.54392   3 ;     C4-    C5-    C6-   H12
   804    805    806    829      9     0.00   0.54392   3 ;     C4-    C5-    C6-   H13
   804    805    807    808      9     0.00   2.17568   3 ;     C4-    C5-    C7-    C8
   804    805    807    830      9     0.00   0.54392   3 ;     C4-    C5-    C7-   H14
   804    805    807    831      9     0.00   0.54392   3 ;     C4-    C5-    C7-   H15
   805    804    802    820      9     0.00   0.54392   3 ;     C5-    C4-    C2-    H4
   805    807    808    809      9     0.00   2.17568   3 ;     C5-    C7-    C8-    C9
   805    807    808    810      9     0.00   2.17568   3 ;     C5-    C7-    C8-   C10
   805    807    808    832      9     0.00   0.54392   3 ;     C5-    C7-    C8-   H16
   806    805    804    824      9     0.00   0.54392   3 ;     C6-    C5-    C4-    H8
   806    805    804    825      9     0.00   0.54392   3 ;     C6-    C5-    C4-    H9
   806    805    807    808      9     0.00   2.17568   3 ;     C6-    C5-    C7-    C8
   806    805    807    830      9     0.00   0.54392   3 ;     C6-    C5-    C7-   H14
   806    805    807    831      9     0.00   0.54392   3 ;     C6-    C5-    C7-   H15
   807    805    804    824      9     0.00   0.54392   3 ;     C7-    C5-    C4-    H8
   807    805    804    825      9     0.00   0.54392   3 ;     C7-    C5-    C4-    H9
   807    805    806    827      9     0.00   0.54392   3 ;     C7-    C5-    C6-   H11
   807    805    806    828      9     0.00   0.54392   3 ;     C7-    C5-    C6-   H12
   807    805    806    829      9     0.00   0.54392   3 ;     C7-    C5-    C6-   H13
   807    808    809    833      9     0.00   0.54392   3 ;     C7-    C8-    C9-   H17
   807    808    809    834      9     0.00   0.54392   3 ;     C7-    C8-    C9-   H18
   807    808    809    835      9     0.00   0.54392   3 ;     C7-    C8-    C9-   H19
   807    808    810    811      9     0.00   2.17568   3 ;     C7-    C8-   C10-   C11
   807    808    810    836      9     0.00   0.54392   3 ;     C7-    C8-   C10-   H20
   807    808    810    837      9     0.00   0.54392   3 ;     C7-    C8-   C10-   H21
   808    807    805    826      9     0.00   0.54392   3 ;     C8-    C7-    C5-   H10
   808    810    811    812      9     0.00   2.17568   3 ;     C8-   C10-   C11-   C12
   808    810    811    813      9     0.00   2.17568   3 ;     C8-   C10-   C11-   C13
   808    810    811    838      9     0.00   0.54392   3 ;     C8-   C10-   C11-   H22
   809    808    807    830      9     0.00   0.54392   3 ;     C9-    C8-    C7-   H14
   809    808    807    831      9     0.00   0.54392   3 ;     C9-    C8-    C7-   H15
   809    808    810    811      9     0.00   2.17568   3 ;     C9-    C8-   C10-   C11
   809    808    810    836      9     0.00   0.54392   3 ;     C9-    C8-   C10-   H20
   809    808    810    837      9     0.00   0.54392   3 ;     C9-    C8-   C10-   H21
   810    808    807    830      9     0.00   0.54392   3 ;    C10-    C8-    C7-   H14
   810    808    807    831      9     0.00   0.54392   3 ;    C10-    C8-    C7-   H15
   810    808    809    833      9     0.00   0.54392   3 ;    C10-    C8-    C9-   H17
   810    808    809    834      9     0.00   0.54392   3 ;    C10-    C8-    C9-   H18
   810    808    809    835      9     0.00   0.54392   3 ;    C10-    C8-    C9-   H19
   810    811    812    839      9     0.00   0.54392   3 ;    C10-   C11-   C12-   H23
   810    811    812    840      9     0.00   0.54392   3 ;    C10-   C11-   C12-   H24
   810    811    812    841      9     0.00   0.54392   3 ;    C10-   C11-   C12-   H25
   810    811    813    814      9     0.00   2.17568   3 ;    C10-   C11-   C13-   C14
   810    811    813    842      9     0.00   0.54392   3 ;    C10-   C11-   C13-   H26
   810    811    813    843      9     0.00   0.54392   3 ;    C10-   C11-   C13-   H27
   811    810    808    832      9     0.00   0.54392   3 ;    C11-   C10-    C8-   H16
   811    813    814    815      9     0.00   2.17568   3 ;    C11-   C13-   C14-   C15
   811    813    814    816      9     0.00   2.17568   3 ;    C11-   C13-   C14-   C16
   811    813    814    844      9     0.00   0.54392   3 ;    C11-   C13-   C14-   H28
   812    811    810    836      9     0.00   0.54392   3 ;    C12-   C11-   C10-   H20
   812    811    810    837      9     0.00   0.54392   3 ;    C12-   C11-   C10-   H21
   812    811    813    814      9     0.00   2.17568   3 ;    C12-   C11-   C13-   C14
   812    811    813    842      9     0.00   0.54392   3 ;    C12-   C11-   C13-   H26
   812    811    813    843      9     0.00   0.54392   3 ;    C12-   C11-   C13-   H27
   813    811    810    836      9     0.00   0.54392   3 ;    C13-   C11-   C10-   H20
   813    811    810    837      9     0.00   0.54392   3 ;    C13-   C11-   C10-   H21
   813    811    812    839      9     0.00   0.54392   3 ;    C13-   C11-   C12-   H23
   813    811    812    840      9     0.00   0.54392   3 ;    C13-   C11-   C12-   H24
   813    811    812    841      9     0.00   0.54392   3 ;    C13-   C11-   C12-   H25
   813    814    815    845      9     0.00   0.54392   3 ;    C13-   C14-   C15-   H29
   813    814    815    846      9     0.00   0.54392   3 ;    C13-   C14-   C15-   H30
   813    814    815    847      9     0.00   0.54392   3 ;    C13-   C14-   C15-   H31
   813    814    816    848      9     0.00   0.54392   3 ;    C13-   C14-   C16-   H32
   813    814    816    849      9     0.00   0.54392   3 ;    C13-   C14-   C16-   H33
   813    814    816    850      9     0.00   0.54392   3 ;    C13-   C14-   C16-   H34
   814    813    811    838      9     0.00   0.54392   3 ;    C14-   C13-   C11-   H22
   815    814    813    842      9     0.00   0.54392   3 ;    C15-   C14-   C13-   H26
   815    814    813    843      9     0.00   0.54392   3 ;    C15-   C14-   C13-   H27
   815    814    816    848      9     0.00   0.54392   3 ;    C15-   C14-   C16-   H32
   815    814    816    849      9     0.00   0.54392   3 ;    C15-   C14-   C16-   H33
   815    814    816    850      9     0.00   0.54392   3 ;    C15-   C14-   C16-   H34
   816    814    813    842      9     0.00   0.54392   3 ;    C16-   C14-   C13-   H26
   816    814    813    843      9     0.00   0.54392   3 ;    C16-   C14-   C13-   H27
   816    814    815    845      9     0.00   0.54392   3 ;    C16-   C14-   C15-   H29
   816    814    815    846      9     0.00   0.54392   3 ;    C16-   C14-   C15-   H30
   816    814    815    847      9     0.00   0.54392   3 ;    C16-   C14-   C15-   H31
   817    801    802    820      9     0.00   0.50208   3 ;     H1-    C1-    C2-    H4
   818    801    802    820      9     0.00   0.50208   3 ;     H2-    C1-    C2-    H4
   819    801    802    820      9     0.00   0.50208   3 ;     H3-    C1-    C2-    H4
   820    802    803    821      9     0.00   0.50208   3 ;     H4-    C2-    C3-    H5
   820    802    803    822      9     0.00   0.50208   3 ;     H4-    C2-    C3-    H6
   820    802    803    823      9     0.00   0.50208   3 ;     H4-    C2-    C3-    H7
   820    802    804    824      9     0.00   0.50208   3 ;     H4-    C2-    C4-    H8
   820    802    804    825      9     0.00   0.50208   3 ;     H4-    C2-    C4-    H9
   824    804    805    826      9     0.00   0.50208   3 ;     H8-    C4-    C5-   H10
   825    804    805    826      9     0.00   0.50208   3 ;     H9-    C4-    C5-   H10
   826    805    806    827      9     0.00   0.50208   3 ;    H10-    C5-    C6-   H11
   826    805    806    828      9     0.00   0.50208   3 ;    H10-    C5-    C6-   H12
   826    805    806    829      9     0.00   0.50208   3 ;    H10-    C5-    C6-   H13
   826    805    807    830      9     0.00   0.50208   3 ;    H10-    C5-    C7-   H14
   826    805    807    831      9     0.00   0.50208   3 ;    H10-    C5-    C7-   H15
   830    807    808    832      9     0.00   0.50208   3 ;    H14-    C7-    C8-   H16
   831    807    808    832      9     0.00   0.50208   3 ;    H15-    C7-    C8-   H16
   832    808    809    833      9     0.00   0.50208   3 ;    H16-    C8-    C9-   H17
   832    808    809    834      9     0.00   0.50208   3 ;    H16-    C8-    C9-   H18
   832    808    809    835      9     0.00   0.50208   3 ;    H16-    C8-    C9-   H19
   832    808    810    836      9     0.00   0.50208   3 ;    H16-    C8-   C10-   H20
   832    808    810    837      9     0.00   0.50208   3 ;    H16-    C8-   C10-   H21
   836    810    811    838      9     0.00   0.50208   3 ;    H20-   C10-   C11-   H22
   837    810    811    838      9     0.00   0.50208   3 ;    H21-   C10-   C11-   H22
   838    811    812    839      9     0.00   0.50208   3 ;    H22-   C11-   C12-   H23
   838    811    812    840      9     0.00   0.50208   3 ;    H22-   C11-   C12-   H24
   838    811    812    841      9     0.00   0.50208   3 ;    H22-   C11-   C12-   H25
   838    811    813    842      9     0.00   0.50208   3 ;    H22-   C11-   C13-   H26
   838    811    813    843      9     0.00   0.50208   3 ;    H22-   C11-   C13-   H27
   842    813    814    844      9     0.00   0.50208   3 ;    H26-   C13-   C14-   H28
   843    813    814    844      9     0.00   0.50208   3 ;    H27-   C13-   C14-   H28
   844    814    815    845      9     0.00   0.50208   3 ;    H28-   C14-   C15-   H29
   844    814    815    846      9     0.00   0.50208   3 ;    H28-   C14-   C15-   H30
   844    814    815    847      9     0.00   0.50208   3 ;    H28-   C14-   C15-   H31
   844    814    816    848      9     0.00   0.50208   3 ;    H28-   C14-   C16-   H32
   844    814    816    849      9     0.00   0.50208   3 ;    H28-   C14-   C16-   H33
   844    814    816    850      9     0.00   0.50208   3 ;    H28-   C14-   C16-   H34
   851    852    853    871      9     0.00   0.54392   3 ;     C1-    C2-    C3-    H5
   851    852    853    872      9     0.00   0.54392   3 ;     C1-    C2-    C3-    H6
   851    852    853    873      9     0.00   0.54392   3 ;     C1-    C2-    C3-    H7
   851    852    854    855      9     0.00   2.17568   3 ;     C1-    C2-    C4-    C5
   851    852    854    874      9     0.00   0.54392   3 ;     C1-    C2-    C4-    H8
   851    852    854    875      9     0.00   0.54392   3 ;     C1-    C2-    C4-    H9
   852    854    855    856      9     0.00   2.17568   3 ;     C2-    C4-    C5-    C6
   852    854    855    857      9     0.00   2.17568   3 ;     C2-    C4-    C5-    C7
   852    854    855    876      9     0.00   0.54392   3 ;     C2-    C4-    C5-   H10
   853    852    851    867      9     0.00   0.54392   3 ;     C3-    C2-    C1-    H1
   853    852    851    868      9     0.00   0.54392   3 ;     C3-    C2-    C1-    H2
   853    852    851    869      9     0.00   0.54392   3 ;     C3-    C2-    C1-    H3
   853    852    854    855      9     0.00   2.17568   3 ;     C3-    C2-    C4-    C5
   853    852    854    874      9     0.00   0.54392   3 ;     C3-    C2-    C4-    H8
   853    852    854    875      9     0.00   0.54392   3 ;     C3-    C2-    C4-    H9
   854    852    851    867      9     0.00   0.54392   3 ;     C4-    C2-    C1-    H1
   854    852    851    868      9     0.00   0.54392   3 ;     C4-    C2-    C1-    H2
   854    852    851    869      9     0.00   0.54392   3 ;     C4-    C2-    C1-    H3
   854    852    853    871      9     0.00   0.54392   3 ;     C4-    C2-    C3-    H5
   854    852    853    872      9     0.00   0.54392   3 ;     C4-    C2-    C3-    H6
   854    852    853    873      9     0.00   0.54392   3 ;     C4-    C2-    C3-    H7
   854    855    856    877      9     0.00   0.54392   3 ;     C4-    C5-    C6-   H11
   854    855    856    878      9     0.00   0.54392   3 ;     C4-    C5-    C6-   H12
   854    855    856    879      9     0.00   0.54392   3 ;     C4-    C5-    C6-   H13
   854    855    857    858      9     0.00   2.17568   3 ;     C4-    C5-    C7-    C8
   854    855    857    880      9     0.00   0.54392   3 ;     C4-    C5-    C7-   H14
   854    855    857    881      9     0.00   0.54392   3 ;     C4-    C5-    C7-   H15
   855    854    852    870      9     0.00   0.54392   3 ;     C5-    C4-    C2-    H4
   855    857    858    859      9     0.00   2.17568   3 ;     C5-    C7-    C8-    C9
   855    857    858    860      9     0.00   2.17568   3 ;     C5-    C7-    C8-   C10
   855    857    858    882      9     0.00   0.54392   3 ;     C5-    C7-    C8-   H16
   856    855    854    874      9     0.00   0.54392   3 ;     C6-    C5-    C4-    H8
   856    855    854    875      9     0.00   0.54392   3 ;     C6-    C5-    C4-    H9
   856    855    857    858      9     0.00   2.17568   3 ;     C6-    C5-    C7-    C8
   856    855    857    880      9     0.00   0.54392   3 ;     C6-    C5-    C7-   H14
   856    855    857    881      9     0.00   0.54392   3 ;     C6-    C5-    C7-   H15
   857    855    854    874      9     0.00   0.54392   3 ;     C7-    C5-    C4-    H8
   857    855    854    875      9     0.00   0.54392   3 ;     C7-    C5-    C4-    H9
   857    855    856    877      9     0.00   0.54392   3 ;     C7-    C5-    C6-   H11
   857    855    856    878      9     0.00   0.54392   3 ;     C7-    C5-    C6-   H12
   857    855    856    879      9     0.00   0.54392   3 ;     C7-    C5-    C6-   H13
   857    858    859    883      9     0.00   0.54392   3 ;     C7-    C8-    C9-   H17
   857    858    859    884      9     0.00   0.54392   3 ;     C7-    C8-    C9-   H18
   857    858    859    885      9     0.00   0.54392   3 ;     C7-    C8-    C9-   H19
   857    858    860    861      9     0.00   2.17568   3 ;     C7-    C8-   C10-   C11
   857    858    860    886      9     0.00   0.54392   3 ;     C7-    C8-   C10-   H20
   857    858    860    887      9     0.00   0.54392   3 ;     C7-    C8-   C10-   H21
   858    857    855    876      9     0.00   0.54392   3 ;     C8-    C7-    C5-   H10
   858    860    861    862      9     0.00   2.17568   3 ;     C8-   C10-   C11-   C12
   858    860    861    863      9     0.00   2.17568   3 ;     C8-   C10-   C11-   C13
   858    860    861    888      9     0.00   0.54392   3 ;     C8-   C10-   C11-   H22
   859    858    857    880      9     0.00   0.54392   3 ;     C9-    C8-    C7-   H14
   859    858    857    881      9     0.00   0.54392   3 ;     C9-    C8-    C7-   H15
   859    858    860    861      9     0.00   2.17568   3 ;     C9-    C8-   C10-   C11
   859    858    860    886      9     0.00   0.54392   3 ;     C9-    C8-   C10-   H20
   859    858    860    887      9     0.00   0.54392   3 ;     C9-    C8-   C10-   H21
   860    858    857    880      9     0.00   0.54392   3 ;    C10-    C8-    C7-   H14
   860    858    857    881      9     0.00   0.54392   3 ;    C10-    C8-    C7-   H15
   860    858    859    883      9     0.00   0.54392   3 ;    C10-    C8-    C9-   H17
   860    858    859    884      9     0.00   0.54392   3 ;    C10-    C8-    C9-   H18
   860    858    859    885      9     0.00   0.54392   3 ;    C10-    C8-    C9-   H19
   860    861    862    889      9     0.00   0.54392   3 ;    C10-   C11-   C12-   H23
   860    861    862    890      9     0.00   0.54392   3 ;    C10-   C11-   C12-   H24
   860    861    862    891      9     0.00   0.54392   3 ;    C10-   C11-   C12-   H25
   860    861    863    864      9     0.00   2.17568   3 ;    C10-   C11-   C13-   C14
   860    861    863    892      9     0.00   0.54392   3 ;    C10-   C11-   C13-   H26
   860    861    863    893      9     0.00   0.54392   3 ;    C10-   C11-   C13-   H27
   861    860    858    882      9     0.00   0.54392   3 ;    C11-   C10-    C8-   H16
   861    863    864    865      9     0.00   2.17568   3 ;    C11-   C13-   C14-   C15
   861    863    864    866      9     0.00   2.17568   3 ;    C11-   C13-   C14-   C16
   861    863    864    894      9     0.00   0.54392   3 ;    C11-   C13-   C14-   H28
   862    861    860    886      9     0.00   0.54392   3 ;    C12-   C11-   C10-   H20
   862    861    860    887      9     0.00   0.54392   3 ;    C12-   C11-   C10-   H21
   862    861    863    864      9     0.00   2.17568   3 ;    C12-   C11-   C13-   C14
   862    861    863    892      9     0.00   0.54392   3 ;    C12-   C11-   C13-   H26
   862    861    863    893      9     0.00   0.54392   3 ;    C12-   C11-   C13-   H27
   863    861    860    886      9     0.00   0.54392   3 ;    C13-   C11-   C10-   H20
   863    861    860    887      9     0.00   0.54392   3 ;    C13-   C11-   C10-   H21
   863    861    862    889      9     0.00   0.54392   3 ;    C13-   C11-   C12-   H23
   863    861    862    890      9     0.00   0.54392   3 ;    C13-   C11-   C12-   H24
   863    861    862    891      9     0.00   0.54392   3 ;    C13-   C11-   C12-   H25
   863    864    865    895      9     0.00   0.54392   3 ;    C13-   C14-   C15-   H29
   863    864    865    896      9     0.00   0.54392   3 ;    C13-   C14-   C15-   H30
   863    864    865    897      9     0.00   0.54392   3 ;    C13-   C14-   C15-   H31
   863    864    866    898      9     0.00   0.54392   3 ;    C13-   C14-   C16-   H32
   863    864    866    899      9     0.00   0.54392   3 ;    C13-   C14-   C16-   H33
   863    864    866    900      9     0.00   0.54392   3 ;    C13-   C14-   C16-   H34
   864    863    861    888      9     0.00   0.54392   3 ;    C14-   C13-   C11-   H22
   865    864    863    892      9     0.00   0.54392   3 ;    C15-   C14-   C13-   H26
   865    864    863    893      9     0.00   0.54392   3 ;    C15-   C14-   C13-   H27
   865    864    866    898      9     0.00   0.54392   3 ;    C15-   C14-   C16-   H32
   865    864    866    899      9     0.00   0.54392   3 ;    C15-   C14-   C16-   H33
   865    864    866    900      9     0.00   0.54392   3 ;    C15-   C14-   C16-   H34
   866    864    863    892      9     0.00   0.54392   3 ;    C16-   C14-   C13-   H26
   866    864    863    893      9     0.00   0.54392   3 ;    C16-   C14-   C13-   H27
   866    864    865    895      9     0.00   0.54392   3 ;    C16-   C14-   C15-   H29
   866    864    865    896      9     0.00   0.54392   3 ;    C16-   C14-   C15-   H30
   866    864    865    897      9     0.00   0.54392   3 ;    C16-   C14-   C15-   H31
   867    851    852    870      9     0.00   0.50208   3 ;     H1-    C1-    C2-    H4
   868    851    852    870      9     0.00   0.50208   3 ;     H2-    C1-    C2-    H4
   869    851    852    870      9     0.00   0.50208   3 ;     H3-    C1-    C2-    H4
   870    852    853    871      9     0.00   0.50208   3 ;     H4-    C2-    C3-    H5
   870    852    853    872      9     0.00   0.50208   3 ;     H4-    C2-    C3-    H6
   870    852    853    873      9     0.00   0.50208   3 ;     H4-    C2-    C3-    H7
   870    852    854    874      9     0.00   0.50208   3 ;     H4-    C2-    C4-    H8
   870    852    854    875      9     0.00   0.50208   3 ;     H4-    C2-    C4-    H9
   874    854    855    876      9     0.00   0.50208   3 ;     H8-    C4-    C5-   H10
   875    854    855    876      9     0.00   0.50208   3 ;     H9-    C4-    C5-   H10
   876    855    856    877      9     0.00   0.50208   3 ;    H10-    C5-    C6-   H11
   876    855    856    878      9     0.00   0.50208   3 ;    H10-    C5-    C6-   H12
   876    855    856    879      9     0.00   0.50208   3 ;    H10-    C5-    C6-   H13
   876    855    857    880      9     0.00   0.50208   3 ;    H10-    C5-    C7-   H14
   876    855    857    881      9     0.00   0.50208   3 ;    H10-    C5-    C7-   H15
   880    857    858    882      9     0.00   0.50208   3 ;    H14-    C7-    C8-   H16
   881    857    858    882      9     0.00   0.50208   3 ;    H15-    C7-    C8-   H16
   882    858    859    883      9     0.00   0.50208   3 ;    H16-    C8-    C9-   H17
   882    858    859    884      9     0.00   0.50208   3 ;    H16-    C8-    C9-   H18
   882    858    859    885      9     0.00   0.50208   3 ;    H16-    C8-    C9-   H19
   882    858    860    886      9     0.00   0.50208   3 ;    H16-    C8-   C10-   H20
   882    858    860    887      9     0.00   0.50208   3 ;    H16-    C8-   C10-   H21
   886    860    861    888      9     0.00   0.50208   3 ;    H20-   C10-   C11-   H22
   887    860    861    888      9     0.00   0.50208   3 ;    H21-   C10-   C11-   H22
   888    861    862    889      9     0.00   0.50208   3 ;    H22-   C11-   C12-   H23
   888    861    862    890      9     0.00   0.50208   3 ;    H22-   C11-   C12-   H24
   888    861    862    891      9     0.00   0.50208   3 ;    H22-   C11-   C12-   H25
   888    861    863    892      9     0.00   0.50208   3 ;    H22-   C11-   C13-   H26
   888    861    863    893      9     0.00   0.50208   3 ;    H22-   C11-   C13-   H27
   892    863    864    894      9     0.00   0.50208   3 ;    H26-   C13-   C14-   H28
   893    863    864    894      9     0.00   0.50208   3 ;    H27-   C13-   C14-   H28
   894    864    865    895      9     0.00   0.50208   3 ;    H28-   C14-   C15-   H29
   894    864    865    896      9     0.00   0.50208   3 ;    H28-   C14-   C15-   H30
   894    864    865    897      9     0.00   0.50208   3 ;    H28-   C14-   C15-   H31
   894    864    866    898      9     0.00   0.50208   3 ;    H28-   C14-   C16-   H32
   894    864    866    899      9     0.00   0.50208   3 ;    H28-   C14-   C16-   H33
   894    864    866    900      9     0.00   0.50208   3 ;    H28-   C14-   C16-   H34
   901    902    903    921      9     0.00   0.54392   3 ;     C1-    C2-    C3-    H5
   901    902    903    922      9     0.00   0.54392   3 ;     C1-    C2-    C3-    H6
   901    902    903    923      9     0.00   0.54392   3 ;     C1-    C2-    C3-    H7
   901    902    904    905      9     0.00   2.17568   3 ;     C1-    C2-    C4-    C5
   901    902    904    924      9     0.00   0.54392   3 ;     C1-    C2-    C4-    H8
   901    902    904    925      9     0.00   0.54392   3 ;     C1-    C2-    C4-    H9
   902    904    905    906      9     0.00   2.17568   3 ;     C2-    C4-    C5-    C6
   902    904    905    907      9     0.00   2.17568   3 ;     C2-    C4-    C5-    C7
   902    904    905    926      9     0.00   0.54392   3 ;     C2-    C4-    C5-   H10
   903    902    901    917      9     0.00   0.54392   3 ;     C3-    C2-    C1-    H1
   903    902    901    918      9     0.00   0.54392   3 ;     C3-    C2-    C1-    H2
   903    902    901    919      9     0.00   0.54392   3 ;     C3-    C2-    C1-    H3
   903    902    904    905      9     0.00   2.17568   3 ;     C3-    C2-    C4-    C5
   903    902    904    924      9     0.00   0.54392   3 ;     C3-    C2-    C4-    H8
   903    902    904    925      9     0.00   0.54392   3 ;     C3-    C2-    C4-    H9
   904    902    901    917      9     0.00   0.54392   3 ;     C4-    C2-    C1-    H1
   904    902    901    918      9     0.00   0.54392   3 ;     C4-    C2-    C1-    H2
   904    902    901    919      9     0.00   0.54392   3 ;     C4-    C2-    C1-    H3
   904    902    903    921      9     0.00   0.54392   3 ;     C4-    C2-    C3-    H5
   904    902    903    922      9     0.00   0.54392   3 ;     C4-    C2-    C3-    H6
   904    902    903    923      9     0.00   0.54392   3 ;     C4-    C2-    C3-    H7
   904    905    906    927      9     0.00   0.54392   3 ;     C4-    C5-    C6-   H11
   904    905    906    928      9     0.00   0.54392   3 ;     C4-    C5-    C6-   H12
   904    905    906    929      9     0.00   0.54392   3 ;     C4-    C5-    C6-   H13
   904    905    907    908      9     0.00   2.17568   3 ;     C4-    C5-    C7-    C8
   904    905    907    930      9     0.00   0.54392   3 ;     C4-    C5-    C7-   H14
   904    905    907    931      9     0.00   0.54392   3 ;     C4-    C5-    C7-   H15
   905    904    902    920      9     0.00   0.54392   3 ;     C5-    C4-    C2-    H4
   905    907    908    909      9     0.00   2.17568   3 ;     C5-    C7-    C8-    C9
   905    907    908    910      9     0.00   2.17568   3 ;     C5-    C7-    C8-   C10
   905    907    908    932      9     0.00   0.54392   3 ;     C5-    C7-    C8-   H16
   906    905    904    924      9     0.00   0.54392   3 ;     C6-    C5-    C4-    H8
   906    905    904    925      9     0.00   0.54392   3 ;     C6-    C5-    C4-    H9
   906    905    907    908      9     0.00   2.17568   3 ;     C6-    C5-    C7-    C8
   906    905    907    930      9     0.00   0.54392   3 ;     C6-    C5-    C7-   H14
   906    905    907    931      9     0.00   0.54392   3 ;     C6-    C5-    C7-   H15
   907    905    904    924      9     0.00   0.54392   3 ;     C7-    C5-    C4-    H8
   907    905    904    925      9     0.00   0.54392   3 ;     C7-    C5-    C4-    H9
   907    905    906    927      9     0.00   0.54392   3 ;     C7-    C5-    C6-   H11
   907    905    906    928      9     0.00   0.54392   3 ;     C7-    C5-    C6-   H12
   907    905    906    929      9     0.00   0.54392   3 ;     C7-    C5-    C6-   H13
   907    908    909    933      9     0.00   0.54392   3 ;     C7-    C8-    C9-   H17
   907    908    909    934      9     0.00   0.54392   3 ;     C7-    C8-    C9-   H18
   907    908    909    935      9     0.00   0.54392   3 ;     C7-    C8-    C9-   H19
   907    908    910    911      9     0.00   2.17568   3 ;     C7-    C8-   C10-   C11
   907    908    910    936      9     0.00   0.54392   3 ;     C7-    C8-   C10-   H20
   907    908    910    937      9     0.00   0.54392   3 ;     C7-    C8-   C10-   H21
   908    907    905    926      9     0.00   0.54392   3 ;     C8-    C7-    C5-   H10
   908    910    911    912      9     0.00   2.17568   3 ;     C8-   C10-   C11-   C12
   908    910    911    913      9     0.00   2.17568   3 ;     C8-   C10-   C11-   C13
   908    910    911    938      9     0.00   0.54392   3 ;     C8-   C10-   C11-   H22
   909    908    907    930      9     0.00   0.54392   3 ;     C9-    C8-    C7-   H14
   909    908    907    931      9     0.00   0.54392   3 ;     C9-    C8-    C7-   H15
   909    908    910    911      9     0.00   2.17568   3 ;     C9-    C8-   C10-   C11
   909    908    910    936      9     0.00   0.54392   3 ;     C9-    C8-   C10-   H20
   909    908    910    937      9     0.00   0.54392   3 ;     C9-    C8-   C10-   H21
   910    908    907    930      9     0.00   0.54392   3 ;    C10-    C8-    C7-   H14
   910    908    907    931      9     0.00   0.54392   3 ;    C10-    C8-    C7-   H15
   910    908    909    933      9     0.00   0.54392   3 ;    C10-    C8-    C9-   H17
   910    908    909    934      9     0.00   0.54392   3 ;    C10-    C8-    C9-   H18
   910    908    909    935      9     0.00   0.54392   3 ;    C10-    C8-    C9-   H19
   910    911    912    939      9     0.00   0.54392   3 ;    C10-   C11-   C12-   H23
   910    911    912    940      9     0.00   0.54392   3 ;    C10-   C11-   C12-   H24
   910    911    912    941      9     0.00   0.54392   3 ;    C10-   C11-   C12-   H25
   910    911    913    914      9     0.00   2.17568   3 ;    C10-   C11-   C13-   C14
   910    911    913    942      9     0.00   0.54392   3 ;    C10-   C11-   C13-   H26
   910    911    913    943      9     0.00   0.54392   3 ;    C10-   C11-   C13-   H27
   911    910    908    932      9     0.00   0.54392   3 ;    C11-   C10-    C8-   H16
   911    913    914    915      9     0.00   2.17568   3 ;    C11-   C13-   C14-   C15
   911    913    914    916      9     0.00   2.17568   3 ;    C11-   C13-   C14-   C16
   911    913    914    944      9     0.00   0.54392   3 ;    C11-   C13-   C14-   H28
   912    911    910    936      9     0.00   0.54392   3 ;    C12-   C11-   C10-   H20
   912    911    910    937      9     0.00   0.54392   3 ;    C12-   C11-   C10-   H21
   912    911    913    914      9     0.00   2.17568   3 ;    C12-   C11-   C13-   C14
   912    911    913    942      9     0.00   0.54392   3 ;    C12-   C11-   C13-   H26
   912    911    913    943      9     0.00   0.54392   3 ;    C12-   C11-   C13-   H27
   913    911    910    936      9     0.00   0.54392   3 ;    C13-   C11-   C10-   H20
   913    911    910    937      9     0.00   0.54392   3 ;    C13-   C11-   C10-   H21
   913    911    912    939      9     0.00   0.54392   3 ;    C13-   C11-   C12-   H23
   913    911    912    940      9     0.00   0.54392   3 ;    C13-   C11-   C12-   H24
   913    911    912    941      9     0.00   0.54392   3 ;    C13-   C11-   C12-   H25
   913    914    915    945      9     0.00   0.54392   3 ;    C13-   C14-   C15-   H29
   913    914    915    946      9     0.00   0.54392   3 ;    C13-   C14-   C15-   H30
   913    914    915    947      9     0.00   0.54392   3 ;    C13-   C14-   C15-   H31
   913    914    916    948      9     0.00   0.54392   3 ;    C13-   C14-   C16-   H32
   913    914    916    949      9     0.00   0.54392   3 ;    C13-   C14-   C16-   H33
   913    914    916    950      9     0.00   0.54392   3 ;    C13-   C14-   C16-   H34
   914    913    911    938      9     0.00   0.54392   3 ;    C14-   C13-   C11-   H22
   915    914    913    942      9     0.00   0.54392   3 ;    C15-   C14-   C13-   H26
   915    914    913    943      9     0.00   0.54392   3 ;    C15-   C14-   C13-   H27
   915    914    916    948      9     0.00   0.54392   3 ;    C15-   C14-   C16-   H32
   915    914    916    949      9     0.00   0.54392   3 ;    C15-   C14-   C16-   H33
   915    914    916    950      9     0.00   0.54392   3 ;    C15-   C14-   C16-   H34
   916    914    913    942      9     0.00   0.54392   3 ;    C16-   C14-   C13-   H26
   916    914    913    943      9     0.00   0.54392   3 ;    C16-   C14-   C13-   H27
   916    914    915    945      9     0.00   0.54392   3 ;    C16-   C14-   C15-   H29
   916    914    915    946      9     0.00   0.54392   3 ;    C16-   C14-   C15-   H30
   916    914    915    947      9     0.00   0.54392   3 ;    C16-   C14-   C15-   H31
   917    901    902    920      9     0.00   0.50208   3 ;     H1-    C1-    C2-    H4
   918    901    902    920      9     0.00   0.50208   3 ;     H2-    C1-    C2-    H4
   919    901    902    920      9     0.00   0.50208   3 ;     H3-    C1-    C2-    H4
   920    902    903    921      9     0.00   0.50208   3 ;     H4-    C2-    C3-    H5
   920    902    903    922      9     0.00   0.50208   3 ;     H4-    C2-    C3-    H6
   920    902    903    923      9     0.00   0.50208   3 ;     H4-    C2-    C3-    H7
   920    902    904    924      9     0.00   0.50208   3 ;     H4-    C2-    C4-    H8
   920    902    904    925      9     0.00   0.50208   3 ;     H4-    C2-    C4-    H9
   924    904    905    926      9     0.00   0.50208   3 ;     H8-    C4-    C5-   H10
   925    904    905    926      9     0.00   0.50208   3 ;     H9-    C4-    C5-   H10
   926    905    906    927      9     0.00   0.50208   3 ;    H10-    C5-    C6-   H11
   926    905    906    928      9     0.00   0.50208   3 ;    H10-    C5-    C6-   H12
   926    905    906    929      9     0.00   0.50208   3 ;    H10-    C5-    C6-   H13
   926    905    907    930      9     0.00   0.50208   3 ;    H10-    C5-    C7-   H14
   926    905    907    931      9     0.00   0.50208   3 ;    H10-    C5-    C7-   H15
   930    907    908    932      9     0.00   0.50208   3 ;    H14-    C7-    C8-   H16
   931    907    908    932      9     0.00   0.50208   3 ;    H15-    C7-    C8-   H16
   932    908    909    933      9     0.00   0.50208   3 ;    H16-    C8-    C9-   H17
   932    908    909    934      9     0.00   0.50208   3 ;    H16-    C8-    C9-   H18
   932    908    909    935      9     0.00   0.50208   3 ;    H16-    C8-    C9-   H19
   932    908    910    936      9     0.00   0.50208   3 ;    H16-    C8-   C10-   H20
   932    908    910    937      9     0.00   0.50208   3 ;    H16-    C8-   C10-   H21
   936    910    911    938      9     0.00   0.50208   3 ;    H20-   C10-   C11-   H22
   937    910    911    938      9     0.00   0.50208   3 ;    H21-   C10-   C11-   H22
   938    911    912    939      9     0.00   0.50208   3 ;    H22-   C11-   C12-   H23
   938    911    912    940      9     0.00   0.50208   3 ;    H22-   C11-   C12-   H24
   938    911    912    941      9     0.00   0.50208   3 ;    H22-   C11-   C12-   H25
   938    911    913    942      9     0.00   0.50208   3 ;    H22-   C11-   C13-   H26
   938    911    913    943      9     0.00   0.50208   3 ;    H22-   C11-   C13-   H27
   942    913    914    944      9     0.00   0.50208   3 ;    H26-   C13-   C14-   H28
   943    913    914    944      9     0.00   0.50208   3 ;    H27-   C13-   C14-   H28
   944    914    915    945      9     0.00   0.50208   3 ;    H28-   C14-   C15-   H29
   944    914    915    946      9     0.00   0.50208   3 ;    H28-   C14-   C15-   H30
   944    914    915    947      9     0.00   0.50208   3 ;    H28-   C14-   C15-   H31
   944    914    916    948      9     0.00   0.50208   3 ;    H28-   C14-   C16-   H32
   944    914    916    949      9     0.00   0.50208   3 ;    H28-   C14-   C16-   H33
   944    914    916    950      9     0.00   0.50208   3 ;    H28-   C14-   C16-   H34
   951    952    953    971      9     0.00   0.54392   3 ;     C1-    C2-    C3-    H5
   951    952    953    972      9     0.00   0.54392   3 ;     C1-    C2-    C3-    H6
   951    952    953    973      9     0.00   0.54392   3 ;     C1-    C2-    C3-    H7
   951    952    954    955      9     0.00   2.17568   3 ;     C1-    C2-    C4-    C5
   951    952    954    974      9     0.00   0.54392   3 ;     C1-    C2-    C4-    H8
   951    952    954    975      9     0.00   0.54392   3 ;     C1-    C2-    C4-    H9
   952    954    955    956      9     0.00   2.17568   3 ;     C2-    C4-    C5-    C6
   952    954    955    957      9     0.00   2.17568   3 ;     C2-    C4-    C5-    C7
   952    954    955    976      9     0.00   0.54392   3 ;     C2-    C4-    C5-   H10
   953    952    951    967      9     0.00   0.54392   3 ;     C3-    C2-    C1-    H1
   953    952    951    968      9     0.00   0.54392   3 ;     C3-    C2-    C1-    H2
   953    952    951    969      9     0.00   0.54392   3 ;     C3-    C2-    C1-    H3
   953    952    954    955      9     0.00   2.17568   3 ;     C3-    C2-    C4-    C5
   953    952    954    974      9     0.00   0.54392   3 ;     C3-    C2-    C4-    H8
   953    952    954    975      9     0.00   0.54392   3 ;     C3-    C2-    C4-    H9
   954    952    951    967      9     0.00   0.54392   3 ;     C4-    C2-    C1-    H1
   954    952    951    968      9     0.00   0.54392   3 ;     C4-    C2-    C1-    H2
   954    952    951    969      9     0.00   0.54392   3 ;     C4-    C2-    C1-    H3
   954    952    953    971      9     0.00   0.54392   3 ;     C4-    C2-    C3-    H5
   954    952    953    972      9     0.00   0.54392   3 ;     C4-    C2-    C3-    H6
   954    952    953    973      9     0.00   0.54392   3 ;     C4-    C2-    C3-    H7
   954    955    956    977      9     0.00   0.54392   3 ;     C4-    C5-    C6-   H11
   954    955    956    978      9     0.00   0.54392   3 ;     C4-    C5-    C6-   H12
   954    955    956    979      9     0.00   0.54392   3 ;     C4-    C5-    C6-   H13
   954    955    957    958      9     0.00   2.17568   3 ;     C4-    C5-    C7-    C8
   954    955    957    980      9     0.00   0.54392   3 ;     C4-    C5-    C7-   H14
   954    955    957    981      9     0.00   0.54392   3 ;     C4-    C5-    C7-   H15
   955    954    952    970      9     0.00   0.54392   3 ;     C5-    C4-    C2-    H4
   955    957    958    959      9     0.00   2.17568   3 ;     C5-    C7-    C8-    C9
   955    957    958    960      9     0.00   2.17568   3 ;     C5-    C7-    C8-   C10
   955    957    958    982      9     0.00   0.54392   3 ;     C5-    C7-    C8-   H16
   956    955    954    974      9     0.00   0.54392   3 ;     C6-    C5-    C4-    H8
   956    955    954    975      9     0.00   0.54392   3 ;     C6-    C5-    C4-    H9
   956    955    957    958      9     0.00   2.17568   3 ;     C6-    C5-    C7-    C8
   956    955    957    980      9     0.00   0.54392   3 ;     C6-    C5-    C7-   H14
   956    955    957    981      9     0.00   0.54392   3 ;     C6-    C5-    C7-   H15
   957    955    954    974      9     0.00   0.54392   3 ;     C7-    C5-    C4-    H8
   957    955    954    975      9     0.00   0.54392   3 ;     C7-    C5-    C4-    H9
   957    955    956    977      9     0.00   0.54392   3 ;     C7-    C5-    C6-   H11
   957    955    956    978      9     0.00   0.54392   3 ;     C7-    C5-    C6-   H12
   957    955    956    979      9     0.00   0.54392   3 ;     C7-    C5-    C6-   H13
   957    958    959    983      9     0.00   0.54392   3 ;     C7-    C8-    C9-   H17
   957    958    959    984      9     0.00   0.54392   3 ;     C7-    C8-    C9-   H18
   957    958    959    985      9     0.00   0.54392   3 ;     C7-    C8-    C9-   H19
   957    958    960    961      9     0.00   2.17568   3 ;     C7-    C8-   C10-   C11
   957    958    960    986      9     0.00   0.54392   3 ;     C7-    C8-   C10-   H20
   957    958    960    987      9     0.00   0.54392   3 ;     C7-    C8-   C10-   H21
   958    957    955    976      9     0.00   0.54392   3 ;     C8-    C7-    C5-   H10
   958    960    961    962      9     0.00   2.17568   3 ;     C8-   C10-   C11-   C12
   958    960    961    963      9     0.00   2.17568   3 ;     C8-   C10-   C11-   C13
   958    960    961    988      9     0.00   0.54392   3 ;     C8-   C10-   C11-   H22
   959    958    957    980      9     0.00   0.54392   3 ;     C9-    C8-    C7-   H14
   959    958    957    981      9     0.00   0.54392   3 ;     C9-    C8-    C7-   H15
   959    958    960    961      9     0.00   2.17568   3 ;     C9-    C8-   C10-   C11
   959    958    960    986      9     0.00   0.54392   3 ;     C9-    C8-   C10-   H20
   959    958    960    987      9     0.00   0.54392   3 ;     C9-    C8-   C10-   H21
   960    958    957    980      9     0.00   0.54392   3 ;    C10-    C8-    C7-   H14
   960    958    957    981      9     0.00   0.54392   3 ;    C10-    C8-    C7-   H15
   960    958    959    983      9     0.00   0.54392   3 ;    C10-    C8-    C9-   H17
   960    958    959    984      9     0.00   0.54392   3 ;    C10-    C8-    C9-   H18
   960    958    959    985      9     0.00   0.54392   3 ;    C10-    C8-    C9-   H19
   960    961    962    989      9     0.00   0.54392   3 ;    C10-   C11-   C12-   H23
   960    961    962    990      9     0.00   0.54392   3 ;    C10-   C11-   C12-   H24
   960    961    962    991      9     0.00   0.54392   3 ;    C10-   C11-   C12-   H25
   960    961    963    964      9     0.00   2.17568   3 ;    C10-   C11-   C13-   C14
   960    961    963    992      9     0.00   0.54392   3 ;    C10-   C11-   C13-   H26
   960    961    963    993      9     0.00   0.54392   3 ;    C10-   C11-   C13-   H27
   961    960    958    982      9     0.00   0.54392   3 ;    C11-   C10-    C8-   H16
   961    963    964    965      9     0.00   2.17568   3 ;    C11-   C13-   C14-   C15
   961    963    964    966      9     0.00   2.17568   3 ;    C11-   C13-   C14-   C16
   961    963    964    994      9     0.00   0.54392   3 ;    C11-   C13-   C14-   H28
   962    961    960    986      9     0.00   0.54392   3 ;    C12-   C11-   C10-   H20
   962    961    960    987      9     0.00   0.54392   3 ;    C12-   C11-   C10-   H21
   962    961    963    964      9     0.00   2.17568   3 ;    C12-   C11-   C13-   C14
   962    961    963    992      9     0.00   0.54392   3 ;    C12-   C11-   C13-   H26
   962    961    963    993      9     0.00   0.54392   3 ;    C12-   C11-   C13-   H27
   963    961    960    986      9     0.00   0.54392   3 ;    C13-   C11-   C10-   H20
   963    961    960    987      9     0.00   0.54392   3 ;    C13-   C11-   C10-   H21
   963    961    962    989      9     0.00   0.54392   3 ;    C13-   C11-   C12-   H23
   963    961    962    990      9     0.00   0.54392   3 ;    C13-   C11-   C12-   H24
   963    961    962    991      9     0.00   0.54392   3 ;    C13-   C11-   C12-   H25
   963    964    965    995      9     0.00   0.54392   3 ;    C13-   C14-   C15-   H29
   963    964    965    996      9     0.00   0.54392   3 ;    C13-   C14-   C15-   H30
   963    964    965    997      9     0.00   0.54392   3 ;    C13-   C14-   C15-   H31
   963    964    966    998      9     0.00   0.54392   3 ;    C13-   C14-   C16-   H32
   963    964    966    999      9     0.00   0.54392   3 ;    C13-   C14-   C16-   H33
   963    964    966   1000      9     0.00   0.54392   3 ;    C13-   C14-   C16-   H34
   964    963    961    988      9     0.00   0.54392   3 ;    C14-   C13-   C11-   H22
   965    964    963    992      9     0.00   0.54392   3 ;    C15-   C14-   C13-   H26
   965    964    963    993      9     0.00   0.54392   3 ;    C15-   C14-   C13-   H27
   965    964    966    998      9     0.00   0.54392   3 ;    C15-   C14-   C16-   H32
   965    964    966    999      9     0.00   0.54392   3 ;    C15-   C14-   C16-   H33
   965    964    966   1000      9     0.00   0.54392   3 ;    C15-   C14-   C16-   H34
   966    964    963    992      9     0.00   0.54392   3 ;    C16-   C14-   C13-   H26
   966    964    963    993      9     0.00   0.54392   3 ;    C16-   C14-   C13-   H27
   966    964    965    995      9     0.00   0.54392   3 ;    C16-   C14-   C15-   H29
   966    964    965    996      9     0.00   0.54392   3 ;    C16-   C14-   C15-   H30
   966    964    965    997      9     0.00   0.54392   3 ;    C16-   C14-   C15-   H31
   967    951    952    970      9     0.00   0.50208   3 ;     H1-    C1-    C2-    H4
   968    951    952    970      9     0.00   0.50208   3 ;     H2-    C1-    C2-    H4
   969    951    952    970      9     0.00   0.50208   3 ;     H3-    C1-    C2-    H4
   970    952    953    971      9     0.00   0.50208   3 ;     H4-    C2-    C3-    H5
   970    952    953    972      9     0.00   0.50208   3 ;     H4-    C2-    C3-    H6
   970    952    953    973      9     0.00   0.50208   3 ;     H4-    C2-    C3-    H7
   970    952    954    974      9     0.00   0.50208   3 ;     H4-    C2-    C4-    H8
   970    952    954    975      9     0.00   0.50208   3 ;     H4-    C2-    C4-    H9
   974    954    955    976      9     0.00   0.50208   3 ;     H8-    C4-    C5-   H10
   975    954    955    976      9     0.00   0.50208   3 ;     H9-    C4-    C5-   H10
   976    955    956    977      9     0.00   0.50208   3 ;    H10-    C5-    C6-   H11
   976    955    956    978      9     0.00   0.50208   3 ;    H10-    C5-    C6-   H12
   976    955    956    979      9     0.00   0.50208   3 ;    H10-    C5-    C6-   H13
   976    955    957    980      9     0.00   0.50208   3 ;    H10-    C5-    C7-   H14
   976    955    957    981      9     0.00   0.50208   3 ;    H10-    C5-    C7-   H15
   980    957    958    982      9     0.00   0.50208   3 ;    H14-    C7-    C8-   H16
   981    957    958    982      9     0.00   0.50208   3 ;    H15-    C7-    C8-   H16
   982    958    959    983      9     0.00   0.50208   3 ;    H16-    C8-    C9-   H17
   982    958    959    984      9     0.00   0.50208   3 ;    H16-    C8-    C9-   H18
   982    958    959    985      9     0.00   0.50208   3 ;    H16-    C8-    C9-   H19
   982    958    960    986      9     0.00   0.50208   3 ;    H16-    C8-   C10-   H20
   982    958    960    987      9     0.00   0.50208   3 ;    H16-    C8-   C10-   H21
   986    960    961    988      9     0.00   0.50208   3 ;    H20-   C10-   C11-   H22
   987    960    961    988      9     0.00   0.50208   3 ;    H21-   C10-   C11-   H22
   988    961    962    989      9     0.00   0.50208   3 ;    H22-   C11-   C12-   H23
   988    961    962    990      9     0.00   0.50208   3 ;    H22-   C11-   C12-   H24
   988    961    962    991      9     0.00   0.50208   3 ;    H22-   C11-   C12-   H25
   988    961    963    992      9     0.00   0.50208   3 ;    H22-   C11-   C13-   H26
   988    961    963    993      9     0.00   0.50208   3 ;    H22-   C11-   C13-   H27
   992    963    964    994      9     0.00   0.50208   3 ;    H26-   C13-   C14-   H28
   993    963    964    994      9     0.00   0.50208   3 ;    H27-   C13-   C14-   H28
   994    964    965    995      9     0.00   0.50208   3 ;    H28-   C14-   C15-   H29
   994    964    965    996      9     0.00   0.50208   3 ;    H28-   C14-   C15-   H30
   994    964    965    997      9     0.00   0.50208   3 ;    H28-   C14-   C15-   H31
   994    964    966    998      9     0.00   0.50208   3 ;    H28-   C14-   C16-   H32
   994    964    966    999      9     0.00   0.50208   3 ;    H28-   C14-   C16-   H33
   994    964    966   1000      9     0.00   0.50208   3 ;    H28-   C14-   C16-   H34

[ system ]
 system

[ molecules ]
; Compound        nmols
 system           1     
