system_GMX.gro created by acpype (v: 2023.10.27) on Mon Jul 13 00:58:13 2026
 1140
    1  UNL   S1    1   2.514   1.573   0.857
    1  UNL   C1    2   2.484   1.428   0.956
    1  UNL   C2    3   2.558   1.405   1.072
    1  UNL   C3    4   2.534   1.290   1.149
    1  UNL   C4    5   2.436   1.198   1.110
    1  UNL   S2    6   2.404   1.051   1.206
    1  UNL   C5    7   2.366   1.119   1.366
    1  UNL   C6    8   2.263   1.212   1.383
    1  UNL   C7    9   2.234   1.264   1.509
    1  UNL   C8   10   2.308   1.223   1.621
    1  UNL   S3   11   2.274   1.288   1.784
    1  UNL   C9   12   2.295   1.463   1.758
    1  UNL  C10   13   2.415   1.516   1.710
    1  UNL  C11   14   2.429   1.654   1.692
    1  UNL  C12   15   2.323   1.741   1.722
    1  UNL   S4   16   2.337   1.917   1.699
    1  UNL  C13   17   2.481   1.956   1.796
    1  UNL  C14   18   2.588   2.023   1.736
    1  UNL  C15   19   2.702   2.055   1.811
    1  UNL  C16   20   2.710   2.022   1.947
    1  UNL   S5   21   2.857   2.063   2.038
    1  UNL  C17   22   2.791   2.156   2.175
    1  UNL  C18   23   2.819   2.116   2.306
    1  UNL  C19   24   2.769   2.188   2.414
    1  UNL  C20   25   2.690   2.301   2.393
    1  UNL  C21   26   2.662   2.343   2.262
    1  UNL  C22   27   2.713   2.271   2.154
    1  UNL  C23   28   2.603   1.954   2.006
    1  UNL  C24   29   2.489   1.922   1.932
    1  UNL  C25   30   2.203   1.687   1.770
    1  UNL  C26   31   2.189   1.549   1.789
    1  UNL  C27   32   2.410   1.128   1.604
    1  UNL  C28   33   2.438   1.077   1.478
    1  UNL  C29   34   2.364   1.222   0.993
    1  UNL  C30   35   2.388   1.336   0.916
    1  UNL   H1   36   2.540   1.657   0.959
    1  UNL   H2   37   2.636   1.474   1.104
    1  UNL   H3   38   2.594   1.273   1.239
    1  UNL   H4   39   2.204   1.246   1.298
    1  UNL   H5   40   2.154   1.337   1.520
    1  UNL   H6   41   2.498   1.451   1.687
    1  UNL   H7   42   2.523   1.693   1.653
    1  UNL   H8   43   2.584   2.050   1.631
    1  UNL   H9   44   2.785   2.107   1.762
    1  UNL  H10   45   2.880   2.028   2.325
    1  UNL  H11   46   2.791   2.156   2.516
    1  UNL  H12   47   2.651   2.357   2.477
    1  UNL  H13   48   2.601   2.431   2.245
    1  UNL  H14   49   2.690   2.305   2.053
    1  UNL  H15   50   2.607   1.927   2.112
    1  UNL  H16   51   2.407   1.871   1.981
    1  UNL  H17   52   2.119   1.753   1.794
    1  UNL  H18   53   2.095   1.510   1.827
    1  UNL  H19   54   2.467   1.094   1.690
    1  UNL  H20   55   2.517   1.003   1.467
    1  UNL  H21   56   2.288   1.151   0.960
    1  UNL  H22   57   2.330   1.352   0.825
    2  UNL   S1   58   1.133   2.725   2.723
    2  UNL   C1   59   1.018   2.725   2.587
    2  UNL   C2   60   1.045   2.796   2.470
    2  UNL   C3   61   0.954   2.796   2.364
    2  UNL   C4   62   0.834   2.724   2.375
    2  UNL   S2   63   0.715   2.722   2.242
    2  UNL   C5   64   0.813   2.660   2.106
    2  UNL   C6   65   0.880   2.537   2.114
    2  UNL   C7   66   0.956   2.491   2.007
    2  UNL   C8   67   0.966   2.566   1.889
    2  UNL   S3   68   1.062   2.509   1.750
    2  UNL   C9   69   1.223   2.489   1.824
    2  UNL  C10   70   1.288   2.596   1.886
    2  UNL  C11   71   1.415   2.578   1.942
    2  UNL  C12   72   1.479   2.453   1.936
    2  UNL   S4   73   1.640   2.427   2.007
    2  UNL  C13   74   1.737   2.553   1.926
    2  UNL  C14   75   1.809   2.644   2.004
    2  UNL  C15   76   1.887   2.743   1.943
    2  UNL  C16   77   1.895   2.751   1.803
    2  UNL   S5   78   1.993   2.879   1.728
    2  UNL  C17   79   2.102   2.785   1.622
    2  UNL  C18   80   2.107   2.815   1.486
    2  UNL  C19   81   2.191   2.743   1.401
    2  UNL  C20   82   2.272   2.642   1.452
    2  UNL  C21   83   2.268   2.612   1.588
    2  UNL  C22   84   2.184   2.684   1.673
    2  UNL  C23   85   1.823   2.659   1.726
    2  UNL  C24   86   1.745   2.560   1.787
    2  UNL  C25   87   1.413   2.347   1.873
    2  UNL  C26   88   1.287   2.365   1.817
    2  UNL  C27   89   0.897   2.687   1.880
    2  UNL  C28   90   0.821   2.734   1.988
    2  UNL  C29   91   0.806   2.654   2.493
    2  UNL  C30   92   0.898   2.655   2.598
    2  UNL   H1   93   1.245   2.725   2.648
    2  UNL   H2   94   1.137   2.853   2.460
    2  UNL   H3   95   0.976   2.852   2.274
    2  UNL   H4   96   0.873   2.477   2.204
    2  UNL   H5   97   1.007   2.395   2.015
    2  UNL   H6   98   1.241   2.694   1.892
    2  UNL   H7   99   1.464   2.662   1.991
    2  UNL   H8  100   1.805   2.639   2.112
    2  UNL   H9  101   1.941   2.814   2.005
    2  UNL  H10  102   2.045   2.894   1.444
    2  UNL  H11  103   2.195   2.767   1.295
    2  UNL  H12  104   2.338   2.586   1.386
    2  UNL  H13  105   2.331   2.533   1.628
    2  UNL  H14  106   2.183   2.660   1.779
    2  UNL  H15  107   1.826   2.664   1.617
    2  UNL  H16  108   1.691   2.490   1.724
    2  UNL  H17  109   1.461   2.249   1.867
    2  UNL  H18  110   1.238   2.280   1.768
    2  UNL  H19  111   0.902   2.747   1.789
    2  UNL  H20  112   0.768   2.829   1.979
    2  UNL  H21  113   0.713   2.599   2.503
    2  UNL  H22  114   0.874   2.600   2.689
    3  UNL   S1  115   0.198   1.546   0.824
    3  UNL   C1  116   0.235   1.720   0.836
    3  UNL   C2  117   0.217   1.788   0.956
    3  UNL   C3  118   0.246   1.925   0.964
    3  UNL   C4  119   0.293   1.994   0.852
    3  UNL   S2  120   0.329   2.169   0.858
    3  UNL   C5  121   0.450   2.176   0.990
    3  UNL   C6  122   0.568   2.100   0.985
    3  UNL   C7  123   0.661   2.108   1.089
    3  UNL   C8  124   0.637   2.190   1.199
    3  UNL   S3  125   0.754   2.201   1.334
    3  UNL   C9  126   0.765   2.031   1.386
    3  UNL  C10  127   0.652   1.960   1.427
    3  UNL  C11  128   0.664   1.827   1.468
    3  UNL  C12  129   0.788   1.764   1.470
    3  UNL   S4  130   0.806   1.594   1.522
    3  UNL  C13  131   0.734   1.597   1.685
    3  UNL  C14  132   0.630   1.508   1.715
    3  UNL  C15  133   0.572   1.508   1.842
    3  UNL  C16  134   0.618   1.595   1.941
    3  UNL   S5  135   0.541   1.593   2.102
    3  UNL  C17  136   0.681   1.567   2.210
    3  UNL  C18  137   0.706   1.659   2.313
    3  UNL  C19  138   0.815   1.640   2.399
    3  UNL  C20  139   0.899   1.530   2.382
    3  UNL  C21  140   0.874   1.438   2.280
    3  UNL  C22  141   0.766   1.457   2.194
    3  UNL  C23  142   0.722   1.683   1.911
    3  UNL  C24  143   0.780   1.684   1.784
    3  UNL  C25  144   0.901   1.835   1.429
    3  UNL  C26  145   0.890   1.968   1.388
    3  UNL  C27  146   0.520   2.267   1.203
    3  UNL  C28  147   0.427   2.260   1.099
    3  UNL  C29  148   0.309   1.925   0.731
    3  UNL  C30  149   0.280   1.789   0.723
    3  UNL   H1  150   0.241   1.513   0.947
    3  UNL   H2  151   0.181   1.737   1.045
    3  UNL   H3  152   0.231   1.977   1.058
    3  UNL   H4  153   0.589   2.036   0.900
    3  UNL   H5  154   0.752   2.048   1.083
    3  UNL   H6  155   0.554   2.007   1.428
    3  UNL   H7  156   0.574   1.773   1.499
    3  UNL   H8  157   0.593   1.439   1.640
    3  UNL   H9  158   0.491   1.439   1.863
    3  UNL  H10  159   0.641   1.745   2.327
    3  UNL  H11  160   0.833   1.711   2.479
    3  UNL  H12  161   0.983   1.516   2.449
    3  UNL  H13  162   0.939   1.352   2.268
    3  UNL  H14  163   0.747   1.384   2.116
    3  UNL  H15  164   0.759   1.753   1.986
    3  UNL  H16  165   0.862   1.753   1.763
    3  UNL  H17  166   0.999   1.788   1.429
    3  UNL  H18  167   0.979   2.022   1.357
    3  UNL  H19  168   0.501   2.333   1.288
    3  UNL  H20  169   0.337   2.320   1.104
    3  UNL  H21  170   0.343   1.977   0.642
    3  UNL  H22  171   0.293   1.737   0.628
    4  UNL   S1  172   1.495   2.909   1.781
    4  UNL   C1  173   1.324   2.910   1.733
    4  UNL   C2  174   1.287   2.923   1.599
    4  UNL   C3  175   1.152   2.924   1.563
    4  UNL   C4  176   1.052   2.911   1.660
    4  UNL   S2  177   0.879   2.913   1.617
    4  UNL   C5  178   0.870   2.778   1.500
    4  UNL   C6  179   0.911   2.649   1.535
    4  UNL   C7  180   0.902   2.545   1.442
    4  UNL   C8  181   0.852   2.569   1.313
    4  UNL   S3  182   0.840   2.438   1.192
    4  UNL   C9  183   1.009   2.382   1.182
    4  UNL  C10  184   1.112   2.470   1.147
    4  UNL  C11  185   1.244   2.424   1.140
    4  UNL  C12  186   1.274   2.289   1.165
    4  UNL   S4  187   1.441   2.228   1.156
    4  UNL  C13  188   1.489   2.273   0.991
    4  UNL  C14  189   1.604   2.349   0.971
    4  UNL  C15  190   1.644   2.386   0.843
    4  UNL  C16  191   1.570   2.345   0.731
    4  UNL   S5  192   1.623   2.394   0.568
    4  UNL  C17  193   1.635   2.237   0.484
    4  UNL  C18  194   1.563   2.218   0.366
    4  UNL  C19  195   1.571   2.096   0.298
    4  UNL  C20  196   1.652   1.993   0.347
    4  UNL  C21  197   1.724   2.013   0.465
    4  UNL  C22  198   1.716   2.134   0.533
    4  UNL  C23  199   1.455   2.269   0.751
    4  UNL  C24  200   1.415   2.232   0.879
    4  UNL  C25  201   1.170   2.202   1.199
    4  UNL  C26  202   1.038   2.248   1.207
    4  UNL  C27  203   0.809   2.697   1.280
    4  UNL  C28  204   0.817   2.801   1.373
    4  UNL  C29  205   1.089   2.899   1.795
    4  UNL  C30  206   1.224   2.898   1.831
    4  UNL   H1  207   1.541   2.842   1.675
    4  UNL   H2  208   1.362   2.934   1.522
    4  UNL   H3  209   1.125   2.935   1.458
    4  UNL   H4  210   0.950   2.628   1.634
    4  UNL   H5  211   0.935   2.445   1.470
    4  UNL   H6  212   1.092   2.574   1.126
    4  UNL   H7  213   1.323   2.494   1.113
    4  UNL   H8  214   1.664   2.382   1.057
    4  UNL   H9  215   1.734   2.446   0.830
    4  UNL  H10  216   1.501   2.297   0.325
    4  UNL  H11  217   1.515   2.081   0.206
    4  UNL  H12  218   1.658   1.899   0.294
    4  UNL  H13  219   1.787   1.933   0.504
    4  UNL  H14  220   1.774   2.148   0.624
    4  UNL  H15  221   1.395   2.236   0.666
    4  UNL  H16  222   1.325   2.172   0.892
    4  UNL  H17  223   1.191   2.097   1.220
    4  UNL  H18  224   0.959   2.178   1.234
    4  UNL  H19  225   0.768   2.718   1.181
    4  UNL  H20  226   0.783   2.901   1.345
    4  UNL  H21  227   1.014   2.891   1.872
    4  UNL  H22  228   1.251   2.889   1.936
    5  UNL   S1  229   2.172   2.473   0.690
    5  UNL   C1  230   2.333   2.420   0.744
    5  UNL   C2  231   2.348   2.299   0.813
    5  UNL   C3  232   2.475   2.258   0.856
    5  UNL   C4  233   2.587   2.338   0.831
    5  UNL   S2  234   2.750   2.289   0.885
    5  UNL   C5  235   2.768   2.130   0.807
    5  UNL   C6  236   2.756   2.115   0.668
    5  UNL   C7  237   2.771   1.989   0.609
    5  UNL   C8  238   2.799   1.877   0.688
    5  UNL   S3  239   2.818   1.715   0.615
    5  UNL   C9  240   2.662   1.694   0.532
    5  UNL  C10  241   2.541   1.700   0.601
    5  UNL  C11  242   2.420   1.683   0.534
    5  UNL  C12  243   2.419   1.657   0.396
    5  UNL   S4  244   2.266   1.635   0.307
    5  UNL  C13  245   2.189   1.501   0.398
    5  UNL  C14  246   2.060   1.519   0.449
    5  UNL  C15  247   1.998   1.415   0.520
    5  UNL  C16  248   2.063   1.293   0.539
    5  UNL   S5  249   1.981   1.164   0.631
    5  UNL  C17  250   1.987   1.028   0.516
    5  UNL  C18  251   2.045   0.907   0.556
    5  UNL  C19  252   2.050   0.798   0.468
    5  UNL  C20  253   1.996   0.810   0.340
    5  UNL  C21  254   1.938   0.930   0.299
    5  UNL  C22  255   1.932   1.038   0.387
    5  UNL  C23  256   2.192   1.276   0.487
    5  UNL  C24  257   2.254   1.379   0.417
    5  UNL  C25  258   2.540   1.650   0.327
    5  UNL  C26  259   2.661   1.668   0.394
    5  UNL  C27  260   2.813   1.892   0.826
    5  UNL  C28  261   2.798   2.018   0.885
    5  UNL  C29  262   2.571   2.460   0.764
    5  UNL  C30  263   2.444   2.500   0.721
    5  UNL   H1  264   2.125   2.351   0.657
    5  UNL   H2  265   2.263   2.235   0.834
    5  UNL   H3  266   2.485   2.164   0.910
    5  UNL   H4  267   2.735   2.201   0.605
    5  UNL   H5  268   2.761   1.980   0.501
    5  UNL   H6  269   2.540   1.719   0.708
    5  UNL   H7  270   2.327   1.689   0.590
    5  UNL   H8  271   2.007   1.613   0.435
    5  UNL   H9  272   1.898   1.431   0.559
    5  UNL  H10  273   2.086   0.896   0.656
    5  UNL  H11  274   2.095   0.705   0.500
    5  UNL  H12  275   2.000   0.725   0.272
    5  UNL  H13  276   1.896   0.939   0.200
    5  UNL  H14  277   1.886   1.131   0.354
    5  UNL  H15  278   2.245   1.182   0.502
    5  UNL  H16  279   2.354   1.363   0.377
    5  UNL  H17  280   2.541   1.631   0.220
    5  UNL  H18  281   2.754   1.662   0.339
    5  UNL  H19  282   2.837   1.807   0.889
    5  UNL  H20  283   2.810   2.028   0.993
    5  UNL  H21  284   2.656   2.524   0.744
    5  UNL  H22  285   2.433   2.595   0.669
    6  UNL   S1  286   2.803   0.253   0.375
    6  UNL   C1  287   2.635   0.311   0.382
    6  UNL   C2  288   2.549   0.269   0.483
    6  UNL   C3  289   2.417   0.315   0.487
    6  UNL   C4  290   2.370   0.403   0.389
    6  UNL   S2  291   2.201   0.463   0.391
    6  UNL   C5  292   2.191   0.537   0.553
    6  UNL   C6  293   2.279   0.638   0.592
    6  UNL   C7  294   2.269   0.695   0.719
    6  UNL   C8  295   2.170   0.652   0.808
    6  UNL   S3  296   2.154   0.724   0.971
    6  UNL   C9  297   2.316   0.692   1.040
    6  UNL  C10  298   2.367   0.563   1.050
    6  UNL  C11  299   2.494   0.540   1.104
    6  UNL  C12  300   2.570   0.647   1.152
    6  UNL   S4  301   2.732   0.622   1.222
    6  UNL  C13  302   2.699   0.506   1.352
    6  UNL  C14  303   2.769   0.385   1.356
    6  UNL  C15  304   2.745   0.292   1.458
    6  UNL  C16  305   2.651   0.319   1.558
    6  UNL   S5  306   2.622   0.198   1.685
    6  UNL  C17  307   2.649   0.294   1.834
    6  UNL  C18  308   2.548   0.300   1.931
    6  UNL  C19  309   2.567   0.373   2.048
    6  UNL  C20  310   2.688   0.440   2.069
    6  UNL  C21  311   2.789   0.434   1.974
    6  UNL  C22  312   2.770   0.360   1.856
    6  UNL  C23  313   2.581   0.440   1.554
    6  UNL  C24  314   2.605   0.533   1.452
    6  UNL  C25  315   2.519   0.777   1.142
    6  UNL  C26  316   2.392   0.799   1.087
    6  UNL  C27  317   2.080   0.553   0.768
    6  UNL  C28  318   2.091   0.496   0.641
    6  UNL  C29  319   2.456   0.444   0.287
    6  UNL  C30  320   2.588   0.398   0.283
    6  UNL   H1  321   2.824   0.251   0.507
    6  UNL   H2  322   2.583   0.200   0.560
    6  UNL   H3  323   2.351   0.280   0.566
    6  UNL   H4  324   2.357   0.673   0.524
    6  UNL   H5  325   2.339   0.774   0.748
    6  UNL   H6  326   2.309   0.478   1.014
    6  UNL   H7  327   2.531   0.438   1.110
    6  UNL   H8  328   2.843   0.362   1.280
    6  UNL   H9  329   2.801   0.199   1.459
    6  UNL  H10  330   2.454   0.248   1.915
    6  UNL  H11  331   2.489   0.378   2.122
    6  UNL  H12  332   2.703   0.497   2.161
    6  UNL  H13  333   2.883   0.486   1.991
    6  UNL  H14  334   2.850   0.356   1.783
    6  UNL  H15  335   2.507   0.463   1.630
    6  UNL  H16  336   2.549   0.626   1.452
    6  UNL  H17  337   2.577   0.862   1.178
    6  UNL  H18  338   2.354   0.901   1.081
    6  UNL  H19  339   2.001   0.520   0.835
    6  UNL  H20  340   2.019   0.419   0.611
    6  UNL  H21  341   2.421   0.511   0.209
    6  UNL  H22  342   2.653   0.431   0.202
    7  UNL   S1  343   1.869   2.254   1.281
    7  UNL   C1  344   1.814   2.105   1.202
    7  UNL   C2  345   1.827   1.981   1.266
    7  UNL   C3  346   1.784   1.864   1.203
    7  UNL   C4  347   1.728   1.869   1.075
    7  UNL   S2  348   1.673   1.721   0.991
    7  UNL   C5  349   1.556   1.655   1.108
    7  UNL   C6  350   1.447   1.730   1.152
    7  UNL   C7  351   1.356   1.676   1.243
    7  UNL   C8  352   1.373   1.546   1.292
    7  UNL   S3  353   1.259   1.474   1.408
    7  UNL   C9  354   1.267   1.590   1.543
    7  UNL  C10  355   1.387   1.620   1.607
    7  UNL  C11  356   1.391   1.711   1.713
    7  UNL  C12  357   1.274   1.773   1.757
    7  UNL   S4  358   1.275   1.890   1.891
    7  UNL  C13  359   1.350   1.796   2.022
    7  UNL  C14  360   1.464   1.846   2.087
    7  UNL  C15  361   1.524   1.774   2.191
    7  UNL  C16  362   1.471   1.652   2.232
    7  UNL   S5  363   1.552   1.562   2.363
    7  UNL  C17  364   1.417   1.537   2.478
    7  UNL  C18  365   1.386   1.407   2.520
    7  UNL  C19  366   1.282   1.385   2.610
    7  UNL  C20  367   1.209   1.493   2.661
    7  UNL  C21  368   1.241   1.623   2.621
    7  UNL  C22  369   1.345   1.645   2.530
    7  UNL  C23  370   1.358   1.601   2.167
    7  UNL  C24  371   1.297   1.673   2.064
    7  UNL  C25  372   1.153   1.743   1.693
    7  UNL  C26  373   1.149   1.652   1.587
    7  UNL  C27  374   1.481   1.470   1.246
    7  UNL  C28  375   1.572   1.524   1.155
    7  UNL  C29  376   1.717   1.992   1.010
    7  UNL  C30  377   1.760   2.110   1.073
    7  UNL   H1  378   1.832   2.221   1.405
    7  UNL   H2  379   1.871   1.975   1.365
    7  UNL   H3  380   1.796   1.769   1.254
    7  UNL   H4  381   1.431   1.831   1.116
    7  UNL   H5  382   1.271   1.736   1.276
    7  UNL   H6  383   1.480   1.572   1.575
    7  UNL   H7  384   1.486   1.733   1.760
    7  UNL   H8  385   1.506   1.942   2.057
    7  UNL   H9  386   1.613   1.815   2.239
    7  UNL  H10  387   1.442   1.322   2.482
    7  UNL  H11  388   1.258   1.284   2.642
    7  UNL  H12  389   1.128   1.476   2.731
    7  UNL  H13  390   1.185   1.707   2.660
    7  UNL  H14  391   1.369   1.747   2.501
    7  UNL  H15  392   1.315   1.505   2.197
    7  UNL  H16  393   1.209   1.632   2.016
    7  UNL  H17  394   1.060   1.790   1.726
    7  UNL  H18  395   1.054   1.630   1.540
    7  UNL  H19  396   1.496   1.368   1.281
    7  UNL  H20  397   1.656   1.463   1.120
    7  UNL  H21  398   1.675   1.999   0.910
    7  UNL  H22  399   1.750   2.205   1.021
    8  UNL   S1  400   2.411   1.201   2.590
    8  UNL   C1  401   2.429   1.045   2.508
    8  UNL   C2  402   2.362   0.931   2.554
    8  UNL   C3  403   2.378   0.809   2.488
    8  UNL   C4  404   2.460   0.799   2.375
    8  UNL   S2  405   2.482   0.644   2.290
    8  UNL   C5  406   2.314   0.601   2.248
    8  UNL   C6  407   2.233   0.687   2.174
    8  UNL   C7  408   2.102   0.651   2.142
    8  UNL   C8  409   2.050   0.528   2.184
    8  UNL   S3  410   1.883   0.480   2.145
    8  UNL   C9  411   1.789   0.614   2.216
    8  UNL  C10  412   1.799   0.645   2.352
    8  UNL  C11  413   1.723   0.750   2.406
    8  UNL  C12  414   1.636   0.824   2.325
    8  UNL   S4  415   1.540   0.958   2.391
    8  UNL  C13  416   1.451   0.880   2.524
    8  UNL  C14  417   1.460   0.932   2.653
    8  UNL  C15  418   1.391   0.873   2.759
    8  UNL  C16  419   1.311   0.760   2.736
    8  UNL   S5  420   1.225   0.685   2.874
    8  UNL  C17  421   1.056   0.684   2.816
    8  UNL  C18  422   0.986   0.563   2.812
    8  UNL  C19  423   0.854   0.560   2.768
    8  UNL  C20  424   0.791   0.678   2.727
    8  UNL  C21  425   0.860   0.799   2.732
    8  UNL  C22  426   0.992   0.802   2.776
    8  UNL  C23  427   1.302   0.707   2.607
    8  UNL  C24  428   1.371   0.767   2.501
    8  UNL  C25  429   1.627   0.792   2.189
    8  UNL  C26  430   1.702   0.687   2.135
    8  UNL  C27  431   2.132   0.441   2.257
    8  UNL  C28  432   2.263   0.477   2.289
    8  UNL  C29  433   2.528   0.912   2.330
    8  UNL  C30  434   2.513   1.035   2.396
    8  UNL   H1  435   2.282   1.187   2.622
    8  UNL   H2  436   2.298   0.936   2.642
    8  UNL   H3  437   2.325   0.721   2.526
    8  UNL   H4  438   2.272   0.783   2.139
    8  UNL   H5  439   2.041   0.720   2.084
    8  UNL   H6  440   1.865   0.589   2.418
    8  UNL   H7  441   1.733   0.773   2.512
    8  UNL   H8  442   1.521   1.020   2.672
    8  UNL   H9  443   1.400   0.915   2.858
    8  UNL  H10  444   1.034   0.471   2.843
    8  UNL  H11  445   0.800   0.466   2.765
    8  UNL  H12  446   0.688   0.675   2.693
    8  UNL  H13  447   0.811   0.891   2.701
    8  UNL  H14  448   1.044   0.897   2.780
    8  UNL  H15  449   1.241   0.619   2.588
    8  UNL  H16  450   1.362   0.725   2.402
    8  UNL  H17  451   1.560   0.848   2.124
    8  UNL  H18  452   1.692   0.664   2.030
    8  UNL  H19  453   2.094   0.344   2.290
    8  UNL  H20  454   2.325   0.408   2.345
    8  UNL  H21  455   2.594   0.907   2.244
    8  UNL  H22  456   2.567   1.122   2.359
    9  UNL   S1  457   1.975   0.318   2.073
    9  UNL   C1  458   2.054   0.320   1.913
    9  UNL   C2  459   1.998   0.253   1.804
    9  UNL   C3  460   2.061   0.255   1.680
    9  UNL   C4  461   2.181   0.325   1.663
    9  UNL   S2  462   2.265   0.329   1.505
    9  UNL   C5  463   2.139   0.396   1.399
    9  UNL   C6  464   2.079   0.519   1.426
    9  UNL   C7  465   1.980   0.570   1.341
    9  UNL   C8  466   1.941   0.498   1.227
    9  UNL   S3  467   1.815   0.560   1.117
    9  UNL   C9  468   1.677   0.581   1.227
    9  UNL  C10  469   1.626   0.473   1.301
    9  UNL  C11  470   1.517   0.491   1.387
    9  UNL  C12  471   1.456   0.617   1.398
    9  UNL   S4  472   1.317   0.643   1.507
    9  UNL  C13  473   1.201   0.521   1.449
    9  UNL  C14  474   1.148   0.429   1.539
    9  UNL  C15  475   1.056   0.333   1.496
    9  UNL  C16  476   1.015   0.329   1.363
    9  UNL   S5  477   0.898   0.204   1.311
    9  UNL  C17  478   0.769   0.303   1.236
    9  UNL  C18  479   0.731   0.277   1.104
    9  UNL  C19  480   0.630   0.352   1.043
    9  UNL  C20  481   0.566   0.453   1.115
    9  UNL  C21  482   0.603   0.479   1.247
    9  UNL  C22  483   0.704   0.404   1.307
    9  UNL  C23  484   1.068   0.422   1.272
    9  UNL  C24  485   1.160   0.518   1.315
    9  UNL  C25  486   1.507   0.724   1.324
    9  UNL  C26  487   1.616   0.706   1.239
    9  UNL  C27  488   2.002   0.376   1.199
    9  UNL  C28  489   2.101   0.325   1.284
    9  UNL  C29  490   2.238   0.391   1.772
    9  UNL  C30  491   2.175   0.388   1.897
    9  UNL   H1  492   1.849   0.322   2.027
    9  UNL   H2  493   1.905   0.198   1.815
    9  UNL   H3  494   2.016   0.202   1.597
    9  UNL   H4  495   2.108   0.577   1.513
    9  UNL   H5  496   1.935   0.666   1.364
    9  UNL   H6  497   1.671   0.374   1.293
    9  UNL   H7  498   1.480   0.406   1.444
    9  UNL   H8  499   1.178   0.430   1.644
    9  UNL   H9  500   1.016   0.261   1.568
    9  UNL  H10  501   0.780   0.198   1.047
    9  UNL  H11  502   0.601   0.332   0.941
    9  UNL  H12  503   0.488   0.512   1.068
    9  UNL  H13  504   0.553   0.558   1.303
    9  UNL  H14  505   0.731   0.425   1.411
    9  UNL  H15  506   1.038   0.420   1.168
    9  UNL  H16  507   1.199   0.589   1.243
    9  UNL  H17  508   1.461   0.823   1.332
    9  UNL  H18  509   1.653   0.791   1.182
    9  UNL  H19  510   1.975   0.319   1.111
    9  UNL  H20  511   2.148   0.230   1.260
    9  UNL  H21  512   2.332   0.444   1.762
    9  UNL  H22  513   2.221   0.440   1.981
   10  UNL   S1  514   0.527   1.299   0.730
   10  UNL   C1  515   0.463   1.167   0.628
   10  UNL   C2  516   0.545   1.103   0.536
   10  UNL   C3  517   0.494   1.000   0.456
   10  UNL   C4  518   0.360   0.960   0.469
   10  UNL   S2  519   0.292   0.830   0.368
   10  UNL   C5  520   0.401   0.693   0.407
   10  UNL   C6  521   0.419   0.650   0.538
   10  UNL   C7  522   0.505   0.543   0.566
   10  UNL   C8  523   0.572   0.478   0.462
   10  UNL   S3  524   0.682   0.341   0.495
   10  UNL   C9  525   0.799   0.414   0.608
   10  UNL  C10  526   0.873   0.527   0.572
   10  UNL  C11  527   0.965   0.583   0.662
   10  UNL  C12  528   0.985   0.525   0.788
   10  UNL   S4  529   1.100   0.593   0.905
   10  UNL  C13  530   1.252   0.594   0.811
   10  UNL  C14  531   1.323   0.714   0.797
   10  UNL  C15  532   1.442   0.717   0.724
   10  UNL  C16  533   1.493   0.600   0.667
   10  UNL   S5  534   1.645   0.608   0.574
   10  UNL  C17  535   1.744   0.484   0.654
   10  UNL  C18  536   1.799   0.380   0.578
   10  UNL  C19  537   1.877   0.281   0.639
   10  UNL  C20  538   1.902   0.287   0.776
   10  UNL  C21  539   1.849   0.391   0.852
   10  UNL  C22  540   1.771   0.489   0.792
   10  UNL  C23  541   1.422   0.481   0.681
   10  UNL  C24  542   1.303   0.478   0.753
   10  UNL  C25  543   0.910   0.411   0.823
   10  UNL  C26  544   0.819   0.356   0.733
   10  UNL  C27  545   0.552   0.520   0.331
   10  UNL  C28  546   0.467   0.627   0.303
   10  UNL  C29  547   0.278   1.027   0.560
   10  UNL  C30  548   0.329   1.130   0.640
   10  UNL   H1  549   0.649   1.247   0.748
   10  UNL   H2  550   0.649   1.132   0.524
   10  UNL   H3  551   0.559   0.951   0.384
   10  UNL   H4  552   0.367   0.699   0.621
   10  UNL   H5  553   0.517   0.511   0.669
   10  UNL   H6  554   0.861   0.573   0.475
   10  UNL   H7  555   1.021   0.671   0.633
   10  UNL   H8  556   1.286   0.806   0.842
   10  UNL   H9  557   1.496   0.811   0.714
   10  UNL  H10  558   1.780   0.374   0.471
   10  UNL  H11  559   1.919   0.201   0.579
   10  UNL  H12  560   1.963   0.211   0.823
   10  UNL  H13  561   1.869   0.396   0.959
   10  UNL  H14  562   1.731   0.570   0.852
   10  UNL  H15  563   1.459   0.389   0.636
   10  UNL  H16  564   1.250   0.383   0.764
   10  UNL  H17  565   0.924   0.365   0.921
   10  UNL  H18  566   0.763   0.268   0.763
   10  UNL  H19  567   0.603   0.470   0.248
   10  UNL  H20  568   0.452   0.658   0.200
   10  UNL  H21  569   0.173   0.999   0.571
   10  UNL  H22  570   0.264   1.180   0.711
   11  UNL   S1  571   0.637   0.564   2.533
   11  UNL   C1  572   0.604   0.739   2.523
   11  UNL   C2  573   0.673   0.819   2.431
   11  UNL   C3  574   0.647   0.956   2.424
   11  UNL   C4  575   0.551   1.014   2.508
   11  UNL   S2  576   0.516   1.189   2.502
   11  UNL   C5  577   0.469   1.211   2.331
   11  UNL   C6  578   0.365   1.137   2.274
   11  UNL   C7  579   0.330   1.156   2.140
   11  UNL   C8  580   0.399   1.249   2.062
   11  UNL   S3  581   0.357   1.275   1.890
   11  UNL   C9  582   0.376   1.111   1.823
   11  UNL  C10  583   0.498   1.043   1.832
   11  UNL  C11  584   0.511   0.915   1.777
   11  UNL  C12  585   0.404   0.854   1.712
   11  UNL   S4  586   0.417   0.691   1.643
   11  UNL  C13  587   0.556   0.709   1.532
   11  UNL  C14  588   0.665   0.622   1.545
   11  UNL  C15  589   0.775   0.634   1.459
   11  UNL  C16  590   0.777   0.731   1.359
   11  UNL   S5  591   0.919   0.744   1.252
   11  UNL  C17  592   0.845   0.732   1.090
   11  UNL  C18  593   0.867   0.833   0.997
   11  UNL  C19  594   0.811   0.825   0.869
   11  UNL  C20  595   0.733   0.715   0.834
   11  UNL  C21  596   0.711   0.613   0.927
   11  UNL  C22  597   0.767   0.621   1.054
   11  UNL  C23  598   0.667   0.818   1.346
   11  UNL  C24  599   0.558   0.806   1.432
   11  UNL  C25  600   0.282   0.923   1.703
   11  UNL  C26  601   0.269   1.051   1.758
   11  UNL  C27  602   0.502   1.324   2.119
   11  UNL  C28  603   0.537   1.305   2.253
   11  UNL  C29  604   0.484   0.934   2.601
   11  UNL  C30  605   0.510   0.797   2.608
   11  UNL   H1  606   0.657   0.544   2.402
   11  UNL   H2  607   0.748   0.776   2.365
   11  UNL   H3  608   0.701   1.017   2.353
   11  UNL   H4  609   0.309   1.065   2.334
   11  UNL   H5  610   0.248   1.098   2.098
   11  UNL   H6  611   0.583   1.089   1.881
   11  UNL   H7  612   0.607   0.864   1.786
   11  UNL   H8  613   0.666   0.545   1.622
   11  UNL   H9  614   0.859   0.566   1.471
   11  UNL  H10  615   0.929   0.919   1.022
   11  UNL  H11  616   0.829   0.904   0.797
   11  UNL  H12  617   0.689   0.709   0.735
   11  UNL  H13  618   0.650   0.527   0.900
   11  UNL  H14  619   0.749   0.541   1.125
   11  UNL  H15  620   0.667   0.895   1.270
   11  UNL  H16  621   0.473   0.874   1.419
   11  UNL  H17  622   0.197   0.877   1.653
   11  UNL  H18  623   0.173   1.102   1.749
   11  UNL  H19  624   0.556   1.398   2.060
   11  UNL  H20  625   0.617   1.365   2.296
   11  UNL  H21  626   0.410   0.977   2.669
   11  UNL  H22  627   0.457   0.736   2.681
   12  UNL   S1  628   1.612   2.500   2.328
   12  UNL   C1  629   1.467   2.406   2.283
   12  UNL   C2  630   1.376   2.456   2.190
   12  UNL   C3  631   1.263   2.382   2.156
   12  UNL   C4  632   1.239   2.257   2.215
   12  UNL   S2  633   1.095   2.161   2.174
   12  UNL   C5  634   1.111   2.144   1.997
   12  UNL   C6  635   1.226   2.088   1.940
   12  UNL   C7  636   1.236   2.075   1.801
   12  UNL   C8  637   1.132   2.118   1.718
   12  UNL   S3  638   1.143   2.103   1.541
   12  UNL   C9  639   1.292   2.195   1.505
   12  UNL  C10  640   1.304   2.329   1.542
   12  UNL  C11  641   1.421   2.400   1.513
   12  UNL  C12  642   1.526   2.338   1.445
   12  UNL   S4  643   1.677   2.425   1.407
   12  UNL  C13  644   1.617   2.566   1.316
   12  UNL  C14  645   1.651   2.695   1.358
   12  UNL  C15  646   1.605   2.806   1.287
   12  UNL  C16  647   1.526   2.791   1.173
   12  UNL   S5  648   1.468   2.935   1.086
   12  UNL  C17  649   1.526   2.904   0.920
   12  UNL  C18  650   1.435   2.905   0.815
   12  UNL  C19  651   1.478   2.882   0.684
   12  UNL  C20  652   1.613   2.859   0.658
   12  UNL  C21  653   1.705   2.859   0.763
   12  UNL  C22  654   1.662   2.882   0.893
   12  UNL  C23  655   1.492   2.662   1.131
   12  UNL  C24  656   1.538   2.550   1.201
   12  UNL  C25  657   1.514   2.204   1.408
   12  UNL  C26  658   1.397   2.133   1.437
   12  UNL  C27  659   1.017   2.172   1.775
   12  UNL  C28  660   1.006   2.185   1.914
   12  UNL  C29  661   1.329   2.209   2.310
   12  UNL  C30  662   1.443   2.283   2.344
   12  UNL   H1  663   1.636   2.551   2.206
   12  UNL   H2  664   1.392   2.553   2.143
   12  UNL   H3  665   1.193   2.423   2.083
   12  UNL   H4  666   1.308   2.053   2.003
   12  UNL   H5  667   1.326   2.031   1.759
   12  UNL   H6  668   1.223   2.380   1.594
   12  UNL   H7  669   1.429   2.504   1.544
   12  UNL   H8  670   1.713   2.709   1.446
   12  UNL   H9  671   1.632   2.906   1.322
   12  UNL  H10  672   1.329   2.923   0.833
   12  UNL  H11  673   1.406   2.882   0.602
   12  UNL  H12  674   1.646   2.841   0.556
   12  UNL  H13  675   1.810   2.841   0.742
   12  UNL  H14  676   1.735   2.883   0.974
   12  UNL  H15  677   1.430   2.647   1.043
   12  UNL  H16  678   1.511   2.451   1.166
   12  UNL  H17  679   1.595   2.153   1.355
   12  UNL  H18  680   1.389   2.029   1.407
   12  UNL  H19  681   0.934   2.204   1.713
   12  UNL  H20  682   0.916   2.227   1.957
   12  UNL  H21  683   1.312   2.113   2.358
   12  UNL  H22  684   1.512   2.243   2.418
   13  UNL   S1  685   1.283   1.048   0.198
   13  UNL   C1  686   1.363   1.192   0.266
   13  UNL   C2  687   1.288   1.299   0.316
   13  UNL   C3  688   1.352   1.412   0.368
   13  UNL   C4  689   1.492   1.419   0.372
   13  UNL   S2  690   1.576   1.561   0.437
   13  UNL   C5  691   1.509   1.571   0.603
   13  UNL   C6  692   1.518   1.463   0.691
   13  UNL   C7  693   1.465   1.472   0.820
   13  UNL   C8  694   1.402   1.590   0.862
   13  UNL   S3  695   1.334   1.605   1.026
   13  UNL   C9  696   1.218   1.469   1.030
   13  UNL  C10  697   1.115   1.459   0.936
   13  UNL  C11  698   1.025   1.353   0.941
   13  UNL  C12  699   1.036   1.255   1.040
   13  UNL   S4  700   0.923   1.117   1.049
   13  UNL  C13  701   0.765   1.199   1.057
   13  UNL  C14  702   0.666   1.167   0.964
   13  UNL  C15  703   0.541   1.230   0.969
   13  UNL  C16  704   0.513   1.324   1.068
   13  UNL   S5  705   0.353   1.402   1.071
   13  UNL  C17  706   0.298   1.368   1.237
   13  UNL  C18  707   0.260   1.475   1.320
   13  UNL  C19  708   0.216   1.450   1.450
   13  UNL  C20  709   0.208   1.320   1.498
   13  UNL  C21  710   0.244   1.213   1.416
   13  UNL  C22  711   0.288   1.237   1.285
   13  UNL  C23  712   0.612   1.356   1.162
   13  UNL  C24  713   0.737   1.293   1.157
   13  UNL  C25  714   1.139   1.265   1.134
   13  UNL  C26  715   1.229   1.372   1.129
   13  UNL  C27  716   1.395   1.698   0.774
   13  UNL  C28  717   1.448   1.689   0.645
   13  UNL  C29  718   1.566   1.312   0.321
   13  UNL  C30  719   1.503   1.199   0.268
   13  UNL   H1  720   1.180   1.046   0.284
   13  UNL   H2  721   1.179   1.296   0.313
   13  UNL   H3  722   1.292   1.494   0.405
   13  UNL   H4  723   1.567   1.370   0.661
   13  UNL   H5  724   1.474   1.387   0.887
   13  UNL   H6  725   1.103   1.534   0.858
   13  UNL   H7  726   0.946   1.346   0.866
   13  UNL   H8  727   0.686   1.094   0.886
   13  UNL   H9  728   0.466   1.204   0.894
   13  UNL  H10  729   0.266   1.577   1.284
   13  UNL  H11  730   0.188   1.533   1.514
   13  UNL  H12  731   0.174   1.301   1.599
   13  UNL  H13  732   0.238   1.111   1.452
   13  UNL  H14  733   0.315   1.153   1.222
   13  UNL  H15  734   0.592   1.429   1.240
   13  UNL  H16  735   0.811   1.319   1.232
   13  UNL  H17  736   1.150   1.190   1.212
   13  UNL  H18  737   1.308   1.378   1.204
   13  UNL  H19  738   1.348   1.791   0.806
   13  UNL  H20  739   1.441   1.775   0.579
   13  UNL  H21  740   1.675   1.316   0.321
   13  UNL  H22  741   1.563   1.118   0.229
   14  UNL   S1  742   2.505   2.453   2.853
   14  UNL   C1  743   2.454   2.584   2.743
   14  UNL   C2  744   2.371   2.557   2.633
   14  UNL   C3  745   2.333   2.660   2.547
   14  UNL   C4  746   2.375   2.791   2.570
   14  UNL   S2  747   2.327   2.925   2.462
   14  UNL   C5  748   2.149   2.915   2.468
   14  UNL   C6  749   2.080   2.923   2.590
   14  UNL   C7  750   1.941   2.915   2.592
   14  UNL   C8  751   1.869   2.900   2.473
   14  UNL   S3  752   1.690   2.890   2.473
   14  UNL   C9  753   1.662   2.750   2.580
   14  UNL  C10  754   1.716   2.625   2.552
   14  UNL  C11  755   1.692   2.516   2.637
   14  UNL  C12  756   1.612   2.532   2.750
   14  UNL   S4  757   1.580   2.396   2.861
   14  UNL  C13  758   1.511   2.274   2.751
   14  UNL  C14  759   1.569   2.147   2.744
   14  UNL  C15  760   1.517   2.049   2.659
   14  UNL  C16  761   1.405   2.077   2.580
   14  UNL   S5  762   1.341   1.951   2.471
   14  UNL  C17  763   1.170   1.941   2.522
   14  UNL  C18  764   1.069   1.959   2.427
   14  UNL  C19  765   0.935   1.951   2.464
   14  UNL  C20  766   0.900   1.925   2.596
   14  UNL  C21  767   1.000   1.906   2.692
   14  UNL  C22  768   1.135   1.914   2.655
   14  UNL  C23  769   1.347   2.204   2.587
   14  UNL  C24  770   1.399   2.301   2.672
   14  UNL  C25  771   1.558   2.657   2.779
   14  UNL  C26  772   1.582   2.766   2.694
   14  UNL  C27  773   1.937   2.895   2.352
   14  UNL  C28  774   2.077   2.902   2.349
   14  UNL  C29  775   2.458   2.818   2.679
   14  UNL  C30  776   2.498   2.714   2.765
   14  UNL   H1  777   2.390   2.384   2.849
   14  UNL   H2  778   2.338   2.456   2.613
   14  UNL   H3  779   2.269   2.637   2.462
   14  UNL   H4  780   2.134   2.935   2.683
   14  UNL   H5  781   1.889   2.922   2.688
   14  UNL   H6  782   1.778   2.610   2.464
   14  UNL   H7  783   1.737   2.420   2.613
   14  UNL   H8  784   1.656   2.122   2.805
   14  UNL   H9  785   1.564   1.951   2.655
   14  UNL  H10  786   1.095   1.979   2.323
   14  UNL  H11  787   0.857   1.965   2.389
   14  UNL  H12  788   0.796   1.919   2.625
   14  UNL  H13  789   0.974   1.885   2.795
   14  UNL  H14  790   1.211   1.898   2.730
   14  UNL  H15  791   1.260   2.228   2.526
   14  UNL  H16  792   1.352   2.399   2.676
   14  UNL  H17  793   1.495   2.672   2.867
   14  UNL  H18  794   1.538   2.862   2.717
   14  UNL  H19  795   1.883   2.885   2.258
   14  UNL  H20  796   2.129   2.898   2.254
   14  UNL  H21  797   2.494   2.919   2.698
   14  UNL  H22  798   2.563   2.737   2.849
   15  UNL   S1  799   0.718   0.749   1.943
   15  UNL   C1  800   0.839   0.626   1.986
   15  UNL   C2  801   0.918   0.566   1.888
   15  UNL   C3  802   1.012   0.468   1.923
   15  UNL   C4  803   1.028   0.430   2.057
   15  UNL   S2  804   1.147   0.306   2.105
   15  UNL   C5  805   1.299   0.375   2.041
   15  UNL   C6  806   1.343   0.502   2.079
   15  UNL   C7  807   1.462   0.553   2.027
   15  UNL   C8  808   1.539   0.478   1.938
   15  UNL   S3  809   1.692   0.541   1.872
   15  UNL   C9  810   1.638   0.692   1.793
   15  UNL  C10  811   1.540   0.690   1.694
   15  UNL  C11  812   1.499   0.810   1.633
   15  UNL  C12  813   1.558   0.931   1.670
   15  UNL   S4  814   1.508   1.085   1.595
   15  UNL  C13  815   1.534   1.052   1.421
   15  UNL  C14  816   1.428   1.070   1.331
   15  UNL  C15  817   1.446   1.045   1.195
   15  UNL  C16  818   1.571   1.004   1.147
   15  UNL   S5  819   1.590   0.972   0.972
   15  UNL  C17  820   1.728   1.077   0.931
   15  UNL  C18  821   1.841   1.021   0.870
   15  UNL  C19  822   1.950   1.101   0.836
   15  UNL  C20  823   1.947   1.238   0.862
   15  UNL  C21  824   1.834   1.295   0.921
   15  UNL  C22  825   1.725   1.215   0.955
   15  UNL  C23  826   1.676   0.986   1.236
   15  UNL  C24  827   1.658   1.011   1.373
   15  UNL  C25  828   1.656   0.932   1.769
   15  UNL  C26  829   1.697   0.813   1.830
   15  UNL  C27  830   1.496   0.350   1.903
   15  UNL  C28  831   1.377   0.298   1.954
   15  UNL  C29  832   0.947   0.490   2.155
   15  UNL  C30  833   0.853   0.587   2.119
   15  UNL   H1  834   0.789   0.807   1.845
   15  UNL   H2  835   0.907   0.593   1.783
   15  UNL   H3  836   1.072   0.422   1.845
   15  UNL   H4  837   1.285   0.562   2.148
   15  UNL   H5  838   1.494   0.653   2.058
   15  UNL   H6  839   1.494   0.597   1.662
   15  UNL   H7  840   1.422   0.806   1.556
   15  UNL   H8  841   1.331   1.102   1.367
   15  UNL   H9  842   1.362   1.059   1.127
   15  UNL  H10  843   1.845   0.914   0.849
   15  UNL  H11  844   2.038   1.056   0.789
   15  UNL  H12  845   2.032   1.300   0.835
   15  UNL  H13  846   1.831   1.402   0.940
   15  UNL  H14  847   1.638   1.261   1.001
   15  UNL  H15  848   1.774   0.953   1.201
   15  UNL  H16  849   1.742   0.997   1.440
   15  UNL  H17  850   1.702   1.026   1.800
   15  UNL  H18  851   1.774   0.816   1.906
   15  UNL  H19  852   1.556   0.289   1.835
   15  UNL  H20  853   1.345   0.198   1.925
   15  UNL  H21  854   0.957   0.461   2.259
   15  UNL  H22  855   0.791   0.631   2.197
   16  UNL   S1  856   1.718   0.996   0.379
   16  UNL   C1  857   1.570   0.937   0.458
   16  UNL   C2  858   1.512   1.009   0.563
   16  UNL   C3  859   1.397   0.961   0.626
   16  UNL   C4  860   1.338   0.842   0.583
   16  UNL   S2  861   1.190   0.778   0.661
   16  UNL   C5  862   1.077   0.914   0.641
   16  UNL   C6  863   1.047   0.965   0.514
   16  UNL   C7  864   0.957   1.071   0.500
   16  UNL   C8  865   0.896   1.127   0.613
   16  UNL   S3  866   0.781   1.263   0.598
   16  UNL   C9  867   0.880   1.386   0.515
   16  UNL  C10  868   1.000   1.431   0.571
   16  UNL  C11  869   1.076   1.528   0.505
   16  UNL  C12  870   1.032   1.582   0.383
   16  UNL   S4  871   1.128   1.705   0.296
   16  UNL  C13  872   1.145   1.833   0.419
   16  UNL  C14  873   1.273   1.878   0.454
   16  UNL  C15  874   1.289   1.978   0.550
   16  UNL  C16  875   1.178   2.036   0.611
   16  UNL   S5  876   1.202   2.162   0.734
   16  UNL  C17  877   1.101   2.295   0.671
   16  UNL  C18  878   1.001   2.350   0.752
   16  UNL  C19  879   0.922   2.455   0.705
   16  UNL  C20  880   0.942   2.506   0.576
   16  UNL  C21  881   1.042   2.452   0.495
   16  UNL  C22  882   1.122   2.347   0.542
   16  UNL  C23  883   1.050   1.990   0.577
   16  UNL  C24  884   1.033   1.890   0.481
   16  UNL  C25  885   0.912   1.537   0.328
   16  UNL  C26  886   0.836   1.440   0.394
   16  UNL  C27  887   0.924   1.074   0.739
   16  UNL  C28  888   1.013   0.968   0.753
   16  UNL  C29  889   1.397   0.769   0.480
   16  UNL  C30  890   1.513   0.817   0.417
   16  UNL   H1  891   1.688   1.127   0.384
   16  UNL   H2  892   1.556   1.102   0.598
   16  UNL   H3  893   1.353   1.018   0.707
   16  UNL   H4  894   1.093   0.923   0.425
   16  UNL   H5  895   0.936   1.110   0.401
   16  UNL   H6  896   1.036   1.392   0.665
   16  UNL   H7  897   1.170   1.561   0.549
   16  UNL   H8  898   1.361   1.835   0.406
   16  UNL   H9  899   1.389   2.011   0.575
   16  UNL  H10  900   0.985   2.312   0.852
   16  UNL  H11  901   0.844   2.497   0.768
   16  UNL  H12  902   0.880   2.587   0.539
   16  UNL  H13  903   1.058   2.491   0.395
   16  UNL  H14  904   1.200   2.307   0.478
   16  UNL  H15  905   0.962   2.033   0.625
   16  UNL  H16  906   0.933   1.857   0.456
   16  UNL  H17  907   0.876   1.577   0.233
   16  UNL  H18  908   0.743   1.406   0.350
   16  UNL  H19  909   0.876   1.115   0.828
   16  UNL  H20  910   1.034   0.928   0.852
   16  UNL  H21  911   1.354   0.675   0.446
   16  UNL  H22  912   1.558   0.759   0.337
   17  UNL   S1  913   0.241   1.919   1.670
   17  UNL   C1  914   0.324   2.054   1.750
   17  UNL   C2  915   0.436   2.115   1.692
   17  UNL   C3  916   0.501   2.220   1.756
   17  UNL   C4  917   0.454   2.267   1.879
   17  UNL   S2  918   0.535   2.402   1.964
   17  UNL   C5  919   0.528   2.531   1.842
   17  UNL   C6  920   0.407   2.574   1.787
   17  UNL   C7  921   0.404   2.676   1.691
   17  UNL   C8  922   0.523   2.737   1.649
   17  UNL   S3  923   0.522   2.867   1.528
   17  UNL   C9  924   0.442   2.787   1.389
   17  UNL  C10  925   0.494   2.670   1.333
   17  UNL  C11  926   0.431   2.609   1.225
   17  UNL  C12  927   0.315   2.666   1.170
   17  UNL   S4  928   0.231   2.591   1.032
   17  UNL  C13  929   0.361   2.581   0.910
   17  UNL  C14  930   0.392   2.457   0.852
   17  UNL  C15  931   0.493   2.447   0.756
   17  UNL  C16  932   0.563   2.561   0.716
   17  UNL   S5  933   0.693   2.544   0.594
   17  UNL  C17  934   0.642   2.663   0.470
   17  UNL  C18  935   0.731   2.764   0.432
   17  UNL  C19  936   0.695   2.857   0.335
   17  UNL  C20  937   0.569   2.850   0.275
   17  UNL  C21  938   0.480   2.749   0.312
   17  UNL  C22  939   0.517   2.656   0.409
   17  UNL  C23  940   0.533   2.684   0.774
   17  UNL  C24  941   0.432   2.695   0.870
   17  UNL  C25  942   0.263   2.783   1.226
   17  UNL  C26  943   0.327   2.844   1.335
   17  UNL  C27  944   0.644   2.696   1.706
   17  UNL  C28  945   0.647   2.594   1.801
   17  UNL  C29  946   0.343   2.206   1.938
   17  UNL  C30  947   0.278   2.100   1.874
   17  UNL   H1  948   0.256   1.964   1.544
   17  UNL   H2  949   0.474   2.079   1.596
   17  UNL   H3  950   0.588   2.265   1.709
   17  UNL   H4  951   0.313   2.528   1.818
   17  UNL   H5  952   0.308   2.707   1.650
   17  UNL   H6  953   0.585   2.625   1.374
   17  UNL   H7  954   0.472   2.518   1.183
   17  UNL   H8  955   0.337   2.368   0.882
   17  UNL   H9  956   0.515   2.350   0.713
   17  UNL  H10  957   0.830   2.770   0.477
   17  UNL  H11  958   0.764   2.935   0.306
   17  UNL  H12  959   0.540   2.923   0.200
   17  UNL  H13  960   0.382   2.744   0.266
   17  UNL  H14  961   0.446   2.578   0.437
   17  UNL  H15  962   0.587   2.774   0.744
   17  UNL  H16  963   0.409   2.792   0.912
   17  UNL  H17  964   0.173   2.829   1.185
   17  UNL  H18  965   0.285   2.935   1.376
   17  UNL  H19  966   0.737   2.743   1.676
   17  UNL  H20  967   0.742   2.564   1.844
   17  UNL  H21  968   0.306   2.240   2.035
   17  UNL  H22  969   0.192   2.054   1.922
   18  UNL   S1  970   2.054   1.840   1.197
   18  UNL   C1  971   2.228   1.865   1.225
   18  UNL   C2  972   2.274   1.919   1.345
   18  UNL   C3  973   2.411   1.939   1.366
   18  UNL   C4  974   2.503   1.904   1.267
   18  UNL   S2  975   2.679   1.929   1.290
   18  UNL   C5  976   2.709   1.835   1.438
   18  UNL   C6  977   2.677   1.699   1.447
   18  UNL   C7  978   2.702   1.628   1.564
   18  UNL   C8  979   2.760   1.691   1.675
   18  UNL   S3  980   2.793   1.603   1.826
   18  UNL   C9  981   2.631   1.542   1.869
   18  UNL  C10  982   2.523   1.629   1.888
   18  UNL  C11  983   2.397   1.579   1.922
   18  UNL  C12  984   2.378   1.442   1.939
   18  UNL   S4  985   2.218   1.376   1.982
   18  UNL  C13  986   2.179   1.464   2.131
   18  UNL  C14  987   2.060   1.536   2.140
   18  UNL  C15  988   2.027   1.606   2.256
   18  UNL  C16  989   2.113   1.604   2.366
   18  UNL   S5  990   2.069   1.696   2.513
   18  UNL  C17  991   2.078   1.570   2.639
   18  UNL  C18  992   2.160   1.590   2.750
   18  UNL  C19  993   2.168   1.493   2.851
   18  UNL  C20  994   2.094   1.376   2.841
   18  UNL  C21  995   2.010   1.355   2.731
   18  UNL  C22  996   2.002   1.452   2.630
   18  UNL  C23  997   2.233   1.533   2.358
   18  UNL  C24  998   2.265   1.462   2.242
   18  UNL  C25  999   2.485   1.355   1.920
   18  UNL  C26 1000   2.612   1.405   1.886
   18  UNL  C27 1001   2.794   1.826   1.665
   18  UNL  C28 1002   2.769   1.898   1.548
   18  UNL  C29 1003   2.457   1.851   1.146
   18  UNL  C30 1004   2.320   1.832   1.125
   18  UNL   H1 1005   2.023   1.804   1.323
   18  UNL   H2 1006   2.205   1.948   1.424
   18  UNL   H3 1007   2.445   1.982   1.460
   18  UNL   H4 1008   2.632   1.648   1.362
   18  UNL   H5 1009   2.676   1.522   1.569
   18  UNL   H6 1010   2.536   1.736   1.876
   18  UNL   H7 1011   2.315   1.649   1.935
   18  UNL   H8 1012   1.991   1.538   2.055
   18  UNL   H9 1013   1.933   1.662   2.260
   18  UNL  H10 1014   2.219   1.681   2.760
   18  UNL  H11 1015   2.233   1.509   2.937
   18  UNL  H12 1016   2.100   1.301   2.919
   18  UNL  H13 1017   1.952   1.264   2.723
   18  UNL  H14 1018   1.937   1.435   2.546
   18  UNL  H15 1019   2.302   1.530   2.442
   18  UNL  H16 1020   2.359   1.407   2.238
   18  UNL  H17 1021   2.472   1.248   1.933
   18  UNL  H18 1022   2.694   1.335   1.873
   18  UNL  H19 1023   2.841   1.877   1.750
   18  UNL  H20 1024   2.797   2.003   1.543
   18  UNL  H21 1025   2.527   1.825   1.067
   18  UNL  H22 1026   2.286   1.791   1.030
   19  UNL   S1 1027   2.252   1.492   1.133
   19  UNL   C1 1028   2.112   1.462   1.238
   19  UNL   C2 1029   2.119   1.483   1.375
   19  UNL   C3 1030   2.009   1.459   1.457
   19  UNL   C4 1031   1.889   1.413   1.401
   19  UNL   S2 1032   1.746   1.380   1.503
   19  UNL   C5 1033   1.721   1.538   1.582
   19  UNL   C6 1034   1.703   1.655   1.508
   19  UNL   C7 1035   1.683   1.777   1.573
   19  UNL   C8 1036   1.681   1.784   1.712
   19  UNL   S3 1037   1.656   1.939   1.797
   19  UNL   C9 1038   1.790   2.037   1.734
   19  UNL  C10 1039   1.923   1.996   1.748
   19  UNL  C11 1040   2.027   2.075   1.697
   19  UNL  C12 1041   1.999   2.197   1.634
   19  UNL   S4 1042   2.129   2.300   1.569
   19  UNL  C13 1043   2.232   2.325   1.712
   19  UNL  C14 1044   2.368   2.292   1.705
   19  UNL  C15 1045   2.451   2.311   1.815
   19  UNL  C16 1046   2.400   2.365   1.934
   19  UNL   S5 1047   2.509   2.387   2.074
   19  UNL  C17 1048   2.486   2.560   2.111
   19  UNL  C18 1049   2.446   2.598   2.240
   19  UNL  C19 1050   2.429   2.732   2.272
   19  UNL  C20 1051   2.451   2.830   2.175
   19  UNL  C21 1052   2.491   2.794   2.047
   19  UNL  C22 1053   2.509   2.659   2.015
   19  UNL  C23 1054   2.265   2.398   1.941
   19  UNL  C24 1055   2.181   2.379   1.830
   19  UNL  C25 1056   1.866   2.238   1.621
   19  UNL  C26 1057   1.762   2.159   1.671
   19  UNL  C27 1058   1.696   1.666   1.786
   19  UNL  C28 1059   1.716   1.544   1.722
   19  UNL  C29 1060   1.882   1.390   1.264
   19  UNL  C30 1061   1.993   1.414   1.182
   19  UNL   H1 1062   2.298   1.599   1.198
   19  UNL   H2 1063   2.212   1.518   1.421
   19  UNL   H3 1064   2.017   1.476   1.564
   19  UNL   H4 1065   1.703   1.652   1.399
   19  UNL   H5 1066   1.669   1.867   1.513
   19  UNL   H6 1067   1.947   1.903   1.797
   19  UNL   H7 1068   2.129   2.041   1.709
   19  UNL   H8 1069   2.410   2.251   1.613
   19  UNL   H9 1070   2.557   2.284   1.808
   19  UNL  H10 1071   2.429   2.522   2.316
   19  UNL  H11 1072   2.398   2.761   2.372
   19  UNL  H12 1073   2.437   2.935   2.200
   19  UNL  H13 1074   2.509   2.870   1.972
   19  UNL  H14 1075   2.541   2.632   1.915
   19  UNL  H15 1076   2.222   2.439   2.032
   19  UNL  H16 1077   2.076   2.406   1.838
   19  UNL  H17 1078   1.842   2.332   1.571
   19  UNL  H18 1079   1.659   2.193   1.659
   19  UNL  H19 1080   1.693   1.669   1.895
   19  UNL  H20 1081   1.728   1.454   1.782
   19  UNL  H21 1082   1.790   1.352   1.218
   19  UNL  H22 1083   1.985   1.395   1.075
   20  UNL   S1 1084   1.714   1.013   2.937
   20  UNL   C1 1085   1.845   1.020   2.817
   20  UNL   C2 1086   1.836   0.950   2.696
   20  UNL   C3 1087   1.939   0.955   2.603
   20  UNL   C4 1088   2.054   1.032   2.629
   20  UNL   S2 1089   2.188   1.040   2.511
   20  UNL   C5 1090   2.105   1.100   2.365
   20  UNL   C6 1091   2.033   1.220   2.366
   20  UNL   C7 1092   1.969   1.265   2.250
   20  UNL   C8 1093   1.976   1.191   2.132
   20  UNL   S3 1094   1.896   1.246   1.983
   20  UNL   C9 1095   1.726   1.258   2.036
   20  UNL  C10 1096   1.658   1.148   2.089
   20  UNL  C11 1097   1.525   1.160   2.129
   20  UNL  C12 1098   1.457   1.282   2.115
   20  UNL   S4 1099   1.287   1.300   2.167
   20  UNL  C13 1100   1.206   1.172   2.073
   20  UNL  C14 1101   1.129   1.077   2.141
   20  UNL  C15 1102   1.064   0.976   2.070
   20  UNL  C16 1103   1.074   0.970   1.930
   20  UNL   S5 1104   0.990   0.838   1.843
   20  UNL  C17 1105   0.892   0.929   1.725
   20  UNL  C18 1106   0.905   0.901   1.588
   20  UNL  C19 1107   0.829   0.971   1.494
   20  UNL  C20 1108   0.738   1.068   1.536
   20  UNL  C21 1109   0.724   1.096   1.672
   20  UNL  C22 1110   0.800   1.027   1.766
   20  UNL  C23 1111   1.151   1.065   1.863
   20  UNL  C24 1112   1.216   1.166   1.934
   20  UNL  C25 1113   1.525   1.392   2.062
   20  UNL  C26 1114   1.659   1.380   2.022
   20  UNL  C27 1115   2.051   1.072   2.130
   20  UNL  C28 1116   2.114   1.027   2.246
   20  UNL  C29 1117   2.064   1.101   2.750
   20  UNL  C30 1118   1.960   1.095   2.843
   20  UNL   H1 1119   1.613   1.010   2.850
   20  UNL   H2 1120   1.748   0.889   2.674
   20  UNL   H3 1121   1.930   0.899   2.510
   20  UNL   H4 1122   2.026   1.279   2.457
   20  UNL   H5 1123   1.913   1.358   2.253
   20  UNL   H6 1124   1.708   1.052   2.099
   20  UNL   H7 1125   1.474   1.073   2.171
   20  UNL   H8 1126   1.119   1.080   2.249
   20  UNL   H9 1127   1.005   0.902   2.124
   20  UNL  H10 1128   0.975   0.825   1.554
   20  UNL  H11 1129   0.839   0.948   1.388
   20  UNL  H12 1130   0.679   1.122   1.463
   20  UNL  H13 1131   0.653   1.172   1.705
   20  UNL  H14 1132   0.787   1.049   1.872
   20  UNL  H15 1133   1.160   1.062   1.755
   20  UNL  H16 1134   1.274   1.240   1.879
   20  UNL  H17 1135   1.475   1.488   2.051
   20  UNL  H18 1136   1.709   1.467   1.980
   20  UNL  H19 1137   2.059   1.014   2.039
   20  UNL  H20 1138   2.172   0.935   2.243
   20  UNL  H21 1139   2.152   1.160   2.772
   20  UNL  H22 1140   1.970   1.150   2.937
    3.05540     3.13360     3.13520
