system
 1000
    1UNL     C1    1   1.204   1.084   1.399 -0.1980  0.2308 -0.2199
    1UNL     C2    2   1.148   1.218   1.372  0.0737 -0.0088 -0.2144
    1UNL     C3    3   1.256   1.307   1.303  0.1881  0.8122 -0.4073
    1UNL     C4    4   1.091   1.278   1.500  0.8556  0.3529  0.1730
    1UNL     C5    5   1.020   1.421   1.480  0.4261  0.1977  1.0621
    1UNL     C6    6   0.903   1.417   1.374 -0.0490 -0.4707 -0.6593
    1UNL     C7    7   0.980   1.502   1.604 -0.4849 -0.4673  0.3977
    1UNL     C8    8   0.943   1.660   1.591 -0.3423  0.1011  0.2875
    1UNL     C9    9   1.059   1.749   1.524  0.9489  0.1863 -0.2780
    1UNL    C10   10   0.911   1.717   1.726  0.8487 -0.1394 -0.2369
    1UNL    C11   11   0.786   1.659   1.803  0.0103  0.0808  0.3609
    1UNL    C12   12   0.658   1.676   1.724 -0.0981  0.0887 -0.5335
    1UNL    C13   13   0.768   1.726   1.947 -0.5291  0.0282 -0.2751
    1UNL    C14   14   0.885   1.720   2.044  0.2285  0.0303  0.6035
    1UNL    C15   15   0.853   1.797   2.171 -0.6704 -0.7693 -0.8446
    1UNL    C16   16   0.943   1.574   2.067  0.0894 -0.7168  0.3519
    1UNL     H1   17   1.279   1.075   1.476 -0.2576  2.8213  3.7345
    1UNL     H2   18   1.127   1.010   1.421 -0.3925 -0.5797 -2.7854
    1UNL     H3   19   1.236   1.046   1.305 -1.2347 -2.0911  2.4967
    1UNL     H4   20   1.075   1.204   1.293 -0.0953 -2.0420 -1.2755
    1UNL     H5   21   1.339   1.333   1.366 -1.7983 -0.1500 -0.5263
    1UNL     H6   22   1.287   1.251   1.215  0.6124 -0.1939  0.3534
    1UNL     H7   23   1.202   1.401   1.269  0.7658  3.1074  1.1430
    1UNL     H8   24   1.019   1.210   1.540  0.5933 -1.1515 -1.0404
    1UNL     H9   25   1.161   1.282   1.580  0.2817  0.5628  0.4534
    1UNL    H10   26   1.103   1.474   1.439 -0.1360 -0.4804 -1.4618
    1UNL    H11   27   0.803   1.396   1.416  1.9414  0.0765 -0.1184
    1UNL    H12   28   0.921   1.350   1.290 -0.8362  2.5022  2.3820
    1UNL    H13   29   0.908   1.510   1.324 -1.1972  1.2368  0.8821
    1UNL    H14   30   1.063   1.499   1.681  0.6604  0.2441 -0.4100
    1UNL    H15   31   0.898   1.440   1.653  0.5170  0.2600 -0.6446
    1UNL    H16   32   0.852   1.665   1.524  4.1334 -1.4788 -4.0473
    1UNL    H17   33   1.164   1.720   1.546  0.1636  3.1298 -1.2929
    1UNL    H18   34   1.045   1.853   1.546 -2.8189  0.6197  1.3548
    1UNL    H19   35   1.054   1.728   1.416  0.2147 -1.1811  1.1756
    1UNL    H20   36   0.887   1.827   1.711 -0.8341 -1.1287  0.6357
    1UNL    H21   37   1.005   1.727   1.784 -0.8219 -1.0934 -2.2954
    1UNL    H22   38   0.801   1.553   1.829 -0.7154 -0.4372  0.4403
    1UNL    H23   39   0.631   1.776   1.692  0.7202  1.5305  2.0252
    1UNL    H24   40   0.573   1.636   1.789  0.8666 -1.9453  1.6714
    1UNL    H25   41   0.667   1.620   1.625  0.6404 -0.7863 -1.7487
    1UNL    H26   42   0.679   1.682   1.998  1.0544  1.7695  2.0939
    1UNL    H27   43   0.739   1.836   1.927  0.3254 -1.1170  0.5896
    1UNL    H28   44   0.959   1.773   1.987 -1.8104 -1.6464  1.2283
    1UNL    H29   45   0.773   1.747   2.228  2.1975 -0.2790  0.1578
    1UNL    H30   46   0.836   1.901   2.143  1.0028  0.4956 -0.8178
    1UNL    H31   47   0.942   1.791   2.230 -0.8082  0.0307 -0.4417
    1UNL    H32   48   1.007   1.567   2.145 -0.3954  1.2468 -1.6055
    1UNL    H33   49   0.863   1.509   2.087  3.0398  1.2992 -2.4711
    1UNL    H34   50   0.995   1.542   1.974  0.7308 -1.4342  1.2675
    2UNL     C1   51   0.971   0.046   1.168  0.0376 -0.0672 -0.2077
    2UNL     C2   52   0.983  -0.094   1.226 -0.1924  0.2951 -0.1248
    2UNL     C3   53   1.058  -0.188   1.117 -0.3371 -0.1087 -0.2552
    2UNL     C4   54   0.841  -0.150   1.261 -0.3060 -0.4509 -0.0312
    2UNL     C5   55   0.740  -0.075   1.352  0.7774 -0.0815 -0.0709
    2UNL     C6   56   0.595  -0.117   1.333 -0.8457  0.2576  0.3726
    2UNL     C7   57   0.792  -0.078   1.502 -0.1509 -0.1585 -0.6181
    2UNL     C8   58   0.710   0.002   1.613 -0.5561  0.5837 -0.5145
    2UNL     C9   59   0.708   0.149   1.589  0.3131  0.7869  0.4117
    2UNL    C10   60   0.771  -0.031   1.754 -0.4371 -0.3662 -0.6808
    2UNL    C11   61   0.752  -0.175   1.805  0.3219  0.6929  0.8912
    2UNL    C12   62   0.602  -0.212   1.819  0.8340 -0.1623  0.7519
    2UNL    C13   63   0.825  -0.202   1.936  0.3422  0.6165 -0.4988
    2UNL    C14   64   0.982  -0.185   1.941 -0.1618  0.2005  0.4084
    2UNL    C15   65   1.035  -0.132   2.080 -0.3374  0.3104  0.3759
    2UNL    C16   66   1.045  -0.317   1.895 -0.3625  0.5286 -0.1323
    2UNL     H1   67   1.072   0.070   1.146  0.2413  0.6957  1.4934
    2UNL     H2   68   0.917   0.053   1.070 -0.6510  0.4204 -0.2765
    2UNL     H3   69   0.944   0.126   1.234  3.0802 -0.7318 -0.0351
    2UNL     H4   70   1.047  -0.075   1.314 -0.1003 -1.8278 -1.0272
    2UNL     H5   71   1.086  -0.284   1.158  0.2521 -1.3826  0.4872
    2UNL     H6   72   0.992  -0.192   1.034  2.2069 -0.2314  0.8947
    2UNL     H7   73   1.147  -0.120   1.089 -0.7035 -0.8174  0.9537
    2UNL     H8   74   0.793  -0.148   1.161  0.5380 -0.0050 -1.7681
    2UNL     H9   75   0.843  -0.255   1.302  0.5102 -0.6715 -0.4920
    2UNL    H10   76   0.739   0.027   1.318 -1.5754  1.5929 -2.3395
    2UNL    H11   77   0.524  -0.075   1.403  2.3550 -1.9489 -1.6379
    2UNL    H12   78   0.573  -0.225   1.323  0.3760  0.1483  0.5520
    2UNL    H13   79   0.568  -0.085   1.238  0.9620 -0.0656  2.0068
    2UNL    H14   80   0.892  -0.047   1.498 -1.1499  3.7871  0.9802
    2UNL    H15   81   0.786  -0.184   1.532 -0.2578 -3.1981  1.4304
    2UNL    H16   82   0.605  -0.036   1.609  1.2395  1.8344  1.4187
    2UNL    H17   83   0.617   0.184   1.639  2.4548  1.1924 -0.7692
    2UNL    H18   84   0.699   0.180   1.483  1.5035  0.6075  0.3919
    2UNL    H19   85   0.788   0.198   1.641  1.8335 -1.1948  1.5859
    2UNL    H20   86   0.698   0.031   1.815  0.5798  2.4537 -1.1696
    2UNL    H21   87   0.871   0.007   1.765 -2.0853 -0.7801  1.3892
    2UNL    H22   88   0.795  -0.248   1.732 -2.8897  1.3841  1.3488
    2UNL    H23   89   0.539  -0.187   1.733  0.1153  0.3732 -1.0953
    2UNL    H24   90   0.558  -0.159   1.903 -1.5379 -3.3670 -0.0187
    2UNL    H25   91   0.597  -0.316   1.826  3.0161 -2.1114 -2.8595
    2UNL    H26   92   0.796  -0.309   1.961  1.9548  2.1088 -2.0918
    2UNL    H27   93   0.789  -0.136   2.010 -1.3179  2.0650  2.0107
    2UNL    H28   94   1.009  -0.109   1.862  0.0992  0.1194  0.5400
    2UNL    H29   95   1.006  -0.203   2.163 -0.7593  1.7794  1.8160
    2UNL    H30   96   0.985  -0.041   2.097 -0.7187 -2.4385 -0.8210
    2UNL    H31   97   1.149  -0.115   2.077  0.7871 -2.1831 -1.5568
    2UNL    H32   98   1.019  -0.347   1.792 -0.7995  0.7846  0.2644
    2UNL    H33   99   1.155  -0.325   1.896 -1.6444 -3.6780 -1.8056
    2UNL    H34  100   1.002  -0.394   1.957 -0.5898  0.2700 -1.7672
    3UNL     C1  101   1.850   1.502   1.601  0.5993 -0.2772 -0.3967
    3UNL     C2  102   1.991   1.499   1.675  0.0047  0.3168  0.3239
    3UNL     C3  103   2.091   1.505   1.556 -0.5467  0.7607  0.4693
    3UNL     C4  104   2.007   1.383   1.773  0.0315 -0.4620  0.1654
    3UNL     C5  105   2.133   1.383   1.861 -0.1336  0.3326 -0.3171
    3UNL     C6  106   2.125   1.504   1.957  0.0226  0.2602  0.2177
    3UNL     C7  107   2.150   1.253   1.938  0.2599 -0.2987 -0.6003
    3UNL     C8  108   2.299   1.218   1.982  0.0227 -0.7206  0.1210
    3UNL     C9  109   2.348   1.278   2.112  0.1376 -0.0738 -0.0857
    3UNL    C10  110   2.406   1.213   1.863  0.6551  0.3790  0.2084
    3UNL    C11  111   2.363   1.153   1.730  0.0152  0.5764  0.3135
    3UNL    C12  112   2.332   0.998   1.750 -0.3166 -0.0389 -0.7342
    3UNL    C13  113   2.472   1.176   1.624 -0.0160  0.1716 -0.8504
    3UNL    C14  114   2.434   1.164   1.469 -0.1889 -0.3652 -0.0153
    3UNL    C15  115   2.315   1.253   1.432 -0.5104 -0.0710  1.0641
    3UNL    C16  116   2.557   1.176   1.371 -0.1725  1.1038 -0.2273
    3UNL     H1  117   1.772   1.484   1.678  2.0468 -0.3868 -0.7992
    3UNL     H2  118   1.836   1.605   1.554  1.1054  0.3577  0.6245
    3UNL     H3  119   1.833   1.422   1.532  4.3647 -1.2839  1.1218
    3UNL     H4  120   2.017   1.591   1.723  1.1172  1.3006  0.3856
    3UNL     H5  121   2.086   1.416   1.486 -4.1921 -1.7642 -1.7101
    3UNL     H6  122   2.066   1.590   1.492  0.2705  0.2474 -0.2563
    3UNL     H7  123   2.193   1.520   1.592  1.6592  3.3150 -2.0786
    3UNL     H8  124   1.917   1.382   1.837 -0.9349  0.3295 -0.1553
    3UNL     H9  125   2.016   1.284   1.720 -0.2671 -3.0495 -1.0011
    3UNL    H10  126   2.227   1.404   1.804 -0.4017  2.1132  1.6818
    3UNL    H11  127   2.022   1.518   2.006 -1.5642  0.3991  3.0478
    3UNL    H12  128   2.149   1.603   1.900  0.6212  1.9872 -2.1510
    3UNL    H13  129   2.205   1.492   2.028 -1.2992 -0.7382 -0.9536
    3UNL    H14  130   2.111   1.168   1.887  1.8470 -2.0448 -1.4128
    3UNL    H15  131   2.099   1.259   2.038 -0.8785  1.0594  1.3110
    3UNL    H16  132   2.281   1.119   2.015 -0.9974 -1.4643  2.1274
    3UNL    H17  133   2.442   1.229   2.140 -0.8548  0.0796 -0.2448
    3UNL    H18  134   2.271   1.274   2.190 -2.2130 -0.5013 -0.1706
    3UNL    H19  135   2.378   1.378   2.102 -0.7542 -1.4651 -1.1174
    3UNL    H20  136   2.494   1.160   1.899 -0.3634 -2.6968  0.0669
    3UNL    H21  137   2.441   1.319   1.852  0.0446  1.6679 -1.2069
    3UNL    H22  138   2.271   1.208   1.699 -1.4258  1.4287  1.7964
    3UNL    H23  139   2.240   0.986   1.804 -1.0567 -1.6533  0.9290
    3UNL    H24  140   2.409   0.943   1.808  2.3916 -0.6876  0.3591
    3UNL    H25  141   2.317   0.950   1.656 -1.4983 -1.7272  0.5756
    3UNL    H26  142   2.555   1.112   1.652 -1.7026 -0.6122  2.6613
    3UNL    H27  143   2.502   1.287   1.631 -1.9537 -2.2702  1.2606
    3UNL    H28  144   2.397   1.062   1.455 -1.2994 -0.5252 -4.4370
    3UNL    H29  145   2.270   1.238   1.331  0.7435 -2.6671  1.8369
    3UNL    H30  146   2.339   1.360   1.443 -0.0896 -0.1006 -2.8574
    3UNL    H31  147   2.228   1.246   1.503  1.4085  0.1892  1.3531
    3UNL    H32  148   2.580   1.079   1.317  2.8462 -0.0447 -2.5292
    3UNL    H33  149   2.539   1.252   1.291 -1.0562 -0.8408 -2.0418
    3UNL    H34  150   2.645   1.202   1.429 -3.5257 -1.7501 -1.2766
    4UNL     C1  151   0.157   1.579   1.328  0.0138 -0.1959  0.9897
    4UNL     C2  152   0.302   1.540   1.302  1.1421 -0.4724 -0.1755
    4UNL     C3  153   0.394   1.579   1.421  0.3326 -1.0378  0.0763
    4UNL     C4  154   0.365   1.585   1.171 -0.0975  0.0676  0.7075
    4UNL     C5  155   0.303   1.533   1.032 -1.3515 -0.6102 -0.0012
    4UNL     C6  156   0.364   1.601   0.910  0.3127 -0.7579  0.0036
    4UNL     C7  157   0.317   1.384   1.015  0.2765  0.3892 -0.4021
    4UNL     C8  158   0.233   1.306   0.919  0.4942  0.2302  0.4869
    4UNL     C9  159   0.086   1.299   0.959 -0.6675  0.0894  0.4590
    4UNL    C10  160   0.293   1.169   0.894  0.5238  0.2418 -0.5953
    4UNL    C11  161   0.429   1.144   0.824  0.8105  0.1796  0.1464
    4UNL    C12  162   0.428   1.201   0.675 -0.0181  0.5117  0.1017
    4UNL    C13  163   0.469   0.995   0.832 -0.3134 -0.6600  0.0759
    4UNL    C14  164   0.604   0.949   0.775 -0.1731  0.6329 -0.2108
    4UNL    C15  165   0.730   1.023   0.824  0.5330  0.4513 -0.0514
    4UNL    C16  166   0.614   0.798   0.796  0.1999 -0.0268  0.7898
    4UNL     H1  167   0.087   1.546   1.248  0.8670 -1.0533 -1.6086
    4UNL     H2  168   0.115   1.568   1.427  1.0563 -2.1946  0.2744
    4UNL     H3  169   0.154   1.681   1.319  0.1236 -1.0453  0.0951
    4UNL     H4  170   0.309   1.431   1.299 -1.0778 -0.6640 -1.2598
    4UNL     H5  171   0.396   1.694   1.424  1.7886 -1.4972 -1.9208
    4UNL     H6  172   0.354   1.549   1.519  0.6799  1.7331 -0.2170
    4UNL     H7  173   0.501   1.536   1.416 -1.2164  0.4531  3.1750
    4UNL     H8  174   0.364   1.691   1.157 -1.7513  0.1379 -0.8704
    4UNL     H9  175   0.475   1.548   1.174 -1.4244 -1.6115 -0.3953
    4UNL    H10  176   0.200   1.561   1.036  1.0570  2.1921 -0.2609
    4UNL    H11  177   0.474   1.608   0.906  0.6291  3.1597  2.4533
    4UNL    H12  178   0.319   1.702   0.924  0.6532 -1.6538 -2.1105
    4UNL    H13  179   0.324   1.554   0.824 -0.4118 -0.4143 -0.8235
    4UNL    H14  180   0.282   1.343   1.114  0.3988 -0.1238  2.5233
    4UNL    H15  181   0.421   1.354   1.008  1.0622  3.9815 -2.0999
    4UNL    H16  182   0.233   1.367   0.835 -2.2412 -1.2822 -0.4083
    4UNL    H17  183   0.050   1.401   0.991  2.1919 -0.2739  2.2383
    4UNL    H18  184   0.072   1.225   1.041 -2.2063  1.7363  1.7844
    4UNL    H19  185   0.017   1.256   0.879  1.5991  1.3405 -0.1153
    4UNL    H20  186   0.225   1.108   0.835  1.0127 -0.6016  0.5235
    4UNL    H21  187   0.275   1.110   0.985 -2.0697 -0.0348 -2.1513
    4UNL    H22  188   0.504   1.201   0.879 -2.6443  3.5492 -0.4190
    4UNL    H23  189   0.532   1.192   0.635 -0.1264 -0.2796  0.4349
    4UNL    H24  190   0.409   1.313   0.699 -0.1407  1.5150  2.2551
    4UNL    H25  191   0.355   1.157   0.605  0.3620  1.4270  2.5981
    4UNL    H26  192   0.381   0.945   0.775  0.1869 -1.6064 -3.7756
    4UNL    H27  193   0.461   0.971   0.937  1.5071  1.9208 -1.4689
    4UNL    H28  194   0.614   0.967   0.667 -0.3933 -0.1594 -4.1175
    4UNL    H29  195   0.736   1.015   0.930  0.7463 -1.6533 -1.8256
    4UNL    H30  196   0.730   1.126   0.793  1.7558 -0.9362  0.1231
    4UNL    H31  197   0.818   0.971   0.776  2.1031 -1.5203  1.7666
    4UNL    H32  198   0.571   0.742   0.709 -0.3368 -1.2153 -0.8616
    4UNL    H33  199   0.716   0.773   0.806 -3.7723  2.0776 -1.7522
    4UNL    H34  200   0.559   0.779   0.885 -1.4461  0.1303 -0.6652
    5UNL     C1  201   1.952   1.120   1.429 -0.3110  0.7627  0.3485
    5UNL     C2  202   1.948   0.987   1.349 -0.4441 -0.2976 -0.2150
    5UNL     C3  203   1.836   0.908   1.399 -0.6052 -0.0337 -1.0631
    5UNL     C4  204   2.080   0.910   1.367 -0.0279  0.2039 -0.8210
    5UNL     C5  205   2.111   0.784   1.286  0.0419  0.0870 -0.2968
    5UNL     C6  206   2.122   0.805   1.138  0.4377 -0.7857 -0.4238
    5UNL     C7  207   2.249   0.721   1.331 -0.1508 -0.4714 -0.4289
    5UNL     C8  208   2.259   0.681   1.482 -0.5746 -0.0432 -0.2727
    5UNL     C9  209   2.398   0.646   1.527 -0.5137 -0.6175  0.2372
    5UNL    C10  210   2.147   0.574   1.524 -0.0725  0.2155 -0.9038
    5UNL    C11  211   2.145   0.535   1.677  0.2732 -0.1127 -0.5994
    5UNL    C12  212   2.078   0.402   1.712 -0.8247 -0.7226 -0.0770
    5UNL    C13  213   2.079   0.652   1.763  0.2277  0.6777  0.1207
    5UNL    C14  214   2.116   0.674   1.914 -0.6107  0.1010  0.2014
    5UNL    C15  215   2.022   0.791   1.963  0.5193 -1.0267 -0.2272
    5UNL    C16  216   2.101   0.549   2.007  0.2701 -0.2460 -0.9053
    5UNL     H1  217   2.036   1.182   1.386 -0.3287 -2.0605 -1.6246
    5UNL     H2  218   1.858   1.172   1.428  0.6214  0.3881  0.7814
    5UNL     H3  219   1.968   1.104   1.539 -0.1833  0.7185 -2.6113
    5UNL     H4  220   1.933   1.002   1.243 -1.7697 -1.0427  0.3292
    5UNL     H5  221   1.851   0.898   1.513 -1.4736 -1.8509 -0.8859
    5UNL     H6  222   1.745   0.960   1.387  0.6021  3.3068  1.2531
    5UNL     H7  223   1.830   0.804   1.363 -2.4744  0.4600  0.3734
    5UNL     H8  224   2.163   0.986   1.361  1.7658 -3.8243 -1.3338
    5UNL     H9  225   2.080   0.881   1.473  1.1136 -2.3323  1.4078
    5UNL    H10  226   2.026   0.713   1.293 -1.1291  1.7614 -0.1062
    5UNL    H11  227   2.025   0.838   1.093  2.3972  1.2714 -1.6364
    5UNL    H12  228   2.160   0.720   1.082  0.3836  2.0729 -0.0998
    5UNL    H13  229   2.195   0.882   1.118 -0.2435  0.9402 -1.2327
    5UNL    H14  230   2.335   0.788   1.303  1.6766 -0.9339  0.5487
    5UNL    H15  231   2.275   0.638   1.266 -3.7518  0.2490 -1.4361
    5UNL    H16  232   2.242   0.771   1.540 -0.6108  2.2019 -1.2011
    5UNL    H17  233   2.470   0.710   1.486  0.0418 -0.9340 -0.8040
    5UNL    H18  234   2.415   0.539   1.492  2.2475  0.1094  1.0948
    5UNL    H19  235   2.414   0.661   1.640  4.1119  1.0756  2.0301
    5UNL    H20  236   2.187   0.479   1.473 -1.7546 -0.6638 -1.0518
    5UNL    H21  237   2.045   0.601   1.490 -0.8579 -0.0324  1.5733
    5UNL    H22  238   2.249   0.509   1.718  3.2070 -0.5293  1.7007
    5UNL    H23  239   2.132   0.332   1.642  1.5902 -1.1159 -2.6356
    5UNL    H24  240   1.975   0.409   1.684  3.6087 -0.3675  1.1536
    5UNL    H25  241   2.079   0.377   1.815  1.5351  0.9399 -0.0998
    5UNL    H26  242   1.973   0.642   1.751 -0.4213  0.8731 -1.3502
    5UNL    H27  243   2.106   0.749   1.720 -0.5421 -1.1309  0.1348
    5UNL    H28  244   2.217   0.703   1.902 -2.4334 -1.2579 -1.2652
    5UNL    H29  245   2.050   0.826   2.061 -1.3405  1.5048  0.4942
    5UNL    H30  246   1.922   0.744   1.979 -1.9905  0.2573 -0.4925
    5UNL    H31  247   2.019   0.869   1.886  2.5004 -0.3713 -0.6665
    5UNL    H32  248   2.115   0.570   2.114  1.9269 -0.2470  0.8827
    5UNL    H33  249   2.001   0.503   1.987 -0.0849  0.1831  1.1854
    5UNL    H34  250   2.177   0.482   1.971 -1.4059  2.2164 -0.1780
    6UNL     C1  251   0.089   2.313   1.304  0.2085  0.2320  0.6196
    6UNL     C2  252  -0.038   2.274   1.227 -0.2665 -0.2403  0.4648
    6UNL     C3  253  -0.033   2.291   1.067  0.4421 -0.1739 -0.4687
    6UNL     C4  254  -0.170   2.324   1.297  0.0982  0.6393  0.0071
    6UNL     C5  255  -0.222   2.475   1.293  0.7851  0.3285 -0.0131
    6UNL     C6  256  -0.105   2.564   1.346  0.0035 -1.1002 -0.1348
    6UNL     C7  257  -0.265   2.526   1.142 -0.0047 -0.0486  0.2260
    6UNL     C8  258  -0.336   2.668   1.141  0.0121  0.9910  0.7642
    6UNL     C9  259  -0.227   2.779   1.135 -1.4199 -0.4462 -0.1610
    6UNL    C10  260  -0.444   2.685   1.250 -0.0644 -0.0752  0.4301
    6UNL    C11  261  -0.546   2.805   1.250  0.7347 -0.1895 -0.5528
    6UNL    C12  262  -0.620   2.815   1.389  0.1800 -0.3587 -0.5077
    6UNL    C13  263  -0.640   2.792   1.131  0.7541  0.8918  0.5077
    6UNL    C14  264  -0.663   2.916   1.047  0.5299  1.1527  0.0820
    6UNL    C15  265  -0.730   3.031   1.129 -0.2066 -0.8145  0.1311
    6UNL    C16  266  -0.535   2.953   0.967  0.3583 -0.4604  0.4114
    6UNL     H1  267   0.180   2.261   1.280 -0.9148 -2.6818 -0.2107
    6UNL     H2  268   0.108   2.417   1.288 -0.8446 -1.1973  0.1708
    6UNL     H3  269   0.079   2.312   1.414  0.2505 -1.4850 -2.2315
    6UNL     H4  270  -0.046   2.166   1.237  0.8611 -0.3360 -1.4579
    6UNL     H5  271  -0.130   2.256   1.017  0.0109 -0.0641  0.0284
    6UNL     H6  272  -0.004   2.388   1.040 -1.9225 -0.3752 -0.6164
    6UNL     H7  273   0.040   2.221   1.026 -2.0638 -0.0010 -2.0866
    6UNL     H8  274  -0.251   2.248   1.272 -0.3243 -1.1129  1.1493
    6UNL     H9  275  -0.148   2.300   1.402  1.2290  2.6740  2.7280
    6UNL    H10  276  -0.312   2.484   1.351  0.9429  1.0903 -0.9339
    6UNL    H11  277  -0.043   2.506   1.418  0.8541  1.6125 -0.1818
    6UNL    H12  278  -0.150   2.640   1.407  0.3683 -1.5683 -1.2704
    6UNL    H13  279  -0.041   2.602   1.263  1.4720 -0.8929  1.0492
    6UNL    H14  280  -0.328   2.456   1.092  3.0827 -2.8114  0.7229
    6UNL    H15  281  -0.179   2.528   1.077  2.7221 -1.2637  0.5332
    6UNL    H16  282  -0.383   2.664   1.043  1.2174  1.4448  0.7692
    6UNL    H17  283  -0.192   2.803   1.230 -0.3367  1.1882 -1.1747
    6UNL    H18  284  -0.266   2.879   1.095  0.0697  1.6861  1.4206
    6UNL    H19  285  -0.137   2.750   1.074  1.9248 -1.2534 -0.3326
    6UNL    H20  286  -0.390   2.696   1.347  1.5538  1.4795  0.9797
    6UNL    H21  287  -0.496   2.586   1.261  0.0195 -0.4043 -0.7073
    6UNL    H22  288  -0.486   2.898   1.251  1.2558 -3.1808 -3.0401
    6UNL    H23  289  -0.647   2.717   1.421  1.0298  0.8673 -1.8372
    6UNL    H24  290  -0.717   2.856   1.386  0.0575  1.1704 -0.0250
    6UNL    H25  291  -0.557   2.863   1.464  0.5129 -0.2335 -0.4612
    6UNL    H26  292  -0.728   2.729   1.159  0.5689 -1.7133  4.3569
    6UNL    H27  293  -0.601   2.720   1.059  1.1086  0.7095  0.7871
    6UNL    H28  294  -0.736   2.876   0.980  0.3978  0.8921  0.8539
    6UNL    H29  295  -0.657   3.075   1.204  1.2082  0.3024  0.0641
    6UNL    H30  296  -0.819   3.003   1.176  1.0310 -0.0503 -0.5168
    6UNL    H31  297  -0.756   3.111   1.048  2.1868  0.1602 -1.4256
    6UNL    H32  298  -0.488   2.872   0.920  0.8564 -2.1421  1.4806
    6UNL    H33  299  -0.558   3.037   0.902 -0.1821 -0.4642  1.5338
    6UNL    H34  300  -0.462   2.989   1.040  1.6502 -0.8396  1.3590
    7UNL     C1  301   0.725   0.160   2.189 -0.2393  0.8008  0.0525
    7UNL     C2  302   0.604   0.239   2.129  0.3422  0.0188  0.2962
    7UNL     C3  303   0.520   0.152   2.028  0.4259  0.4125  0.1730
    7UNL     C4  304   0.657   0.372   2.061 -0.4787 -0.8768  0.4496
    7UNL     C5  305   0.756   0.465   2.143 -0.8833  0.3052  0.1273
    7UNL     C6  306   0.797   0.589   2.059  0.0419  0.5016 -0.4582
    7UNL     C7  307   0.698   0.512   2.284  0.0565  0.0182  0.4173
    7UNL     C8  308   0.790   0.608   2.373  0.4321  1.1784  0.0504
    7UNL     C9  309   0.924   0.541   2.411  0.2866 -0.5373  0.4353
    7UNL    C10  310   0.723   0.671   2.499  0.4675 -0.1106  0.5786
    7UNL    C11  311   0.579   0.751   2.467 -0.5424 -0.0892 -0.3314
    7UNL    C12  312   0.597   0.864   2.363 -0.7156 -1.2468  0.0317
    7UNL    C13  313   0.521   0.804   2.606  0.2631 -0.1478 -0.3271
    7UNL    C14  314   0.390   0.883   2.601  0.5040 -0.3355 -0.3519
    7UNL    C15  315   0.273   0.808   2.523 -0.1965 -0.5243  0.1830
    7UNL    C16  316   0.346   0.915   2.749 -0.0748 -0.4634 -0.1104
    7UNL     H1  317   0.688   0.084   2.259 -0.0000 -1.3150 -0.0218
    7UNL     H2  318   0.770   0.110   2.098 -0.8135 -1.7009 -0.1027
    7UNL     H3  319   0.799   0.214   2.251  0.6922  0.1884 -2.3369
    7UNL     H4  320   0.527   0.275   2.203 -0.4322 -2.4267  2.1614
    7UNL     H5  321   0.560   0.159   1.922 -2.0078 -1.1660 -0.3507
    7UNL     H6  322   0.518   0.043   2.050  1.4259 -0.0592  2.8615
    7UNL     H7  323   0.417   0.186   2.037 -1.2381 -0.0969 -0.5238
    7UNL     H8  324   0.693   0.364   1.952 -2.6272  1.2081 -1.4828
    7UNL     H9  325   0.574   0.441   2.050 -3.4035 -1.9715 -2.4059
    7UNL    H10  326   0.842   0.408   2.154 -0.3043 -0.9811 -2.3594
    7UNL    H11  327   0.817   0.556   1.954 -1.9079  0.6250 -0.1710
    7UNL    H12  328   0.871   0.643   2.120 -0.5232  1.9263  0.3346
    7UNL    H13  329   0.708   0.654   2.047 -1.1918 -0.3727  0.1401
    7UNL    H14  330   0.663   0.425   2.339 -3.9141 -1.2817  2.1110
    7UNL    H15  331   0.599   0.562   2.259  0.2796  1.7562 -0.2696
    7UNL    H16  332   0.811   0.701   2.319 -0.6077  0.9049 -3.0735
    7UNL    H17  333   0.973   0.508   2.313 -0.5696 -0.7593 -4.8041
    7UNL    H18  334   0.901   0.450   2.472 -2.0150  0.9205 -1.3534
    7UNL    H19  335   0.980   0.607   2.468 -1.1222  1.1812  0.8438
    7UNL    H20  336   0.785   0.737   2.557 -0.2957  0.0412  1.5166
    7UNL    H21  337   0.693   0.589   2.572 -0.7778  0.2794 -1.9456
    7UNL    H22  338   0.508   0.681   2.422 -0.7281 -4.0195  0.4321
    7UNL    H23  339   0.659   0.947   2.397 -1.2269  1.8119 -0.6010
    7UNL    H24  340   0.498   0.897   2.329  1.6606  1.4238  0.9552
    7UNL    H25  341   0.640   0.832   2.263  0.9491 -0.6786 -2.2387
    7UNL    H26  342   0.593   0.871   2.646 -0.7347 -0.7481 -1.4859
    7UNL    H27  343   0.516   0.714   2.677  2.5726  1.7862  1.5603
    7UNL    H28  344   0.419   0.981   2.561 -0.1706 -0.9663  1.1387
    7UNL    H29  345   0.183   0.874   2.535 -0.7968 -0.6487 -0.5428
    7UNL    H30  346   0.265   0.703   2.567  0.9821 -1.5076  0.3983
    7UNL    H31  347   0.293   0.800   2.418  0.1036  0.1377  1.9417
    7UNL    H32  348   0.431   0.953   2.800  0.6016  2.1244  0.0643
    7UNL    H33  349   0.262   0.981   2.747  0.5652 -1.8338 -0.0526
    7UNL    H34  350   0.305   0.820   2.785 -1.1016 -1.9587  0.0240
    8UNL     C1  351   0.064   2.248   1.728 -0.0368 -0.4656 -0.0256
    8UNL     C2  352   0.154   2.248   1.854  0.0438 -0.1635  0.6001
    8UNL     C3  353   0.236   2.377   1.866  0.1384  0.2308 -0.3222
    8UNL     C4  354   0.238   2.114   1.863  0.6289  0.1527 -0.3414
    8UNL     C5  355   0.165   1.970   1.860 -0.1791 -0.2610  0.2245
    8UNL     C6  356   0.113   1.931   1.713 -0.9165  0.1527 -0.4692
    8UNL     C7  357   0.262   1.871   1.928 -0.2837 -0.3010 -0.7111
    8UNL     C8  358   0.220   1.724   1.954  0.7401 -0.3370  0.0617
    8UNL     C9  359   0.233   1.633   1.826  0.4786 -0.3951 -0.9944
    8UNL    C10  360   0.082   1.692   2.022 -0.6352 -0.0752 -0.2360
    8UNL    C11  361   0.075   1.745   2.174  0.9352 -0.2011  0.4233
    8UNL    C12  362   0.159   1.658   2.270  0.4966  0.2781 -0.2166
    8UNL    C13  363  -0.075   1.762   2.215 -0.2922  0.2841  0.0801
    8UNL    C14  364  -0.157   1.876   2.161 -0.9351 -0.0786 -0.2274
    8UNL    C15  365  -0.304   1.869   2.194  0.5129  0.7372  0.2260
    8UNL    C16  366  -0.106   2.017   2.211  0.0662 -0.4956 -0.1081
    8UNL     H1  367   0.044   2.355   1.696 -0.7855 -0.1212 -1.4393
    8UNL     H2  368   0.120   2.209   1.644 -1.3523  2.6958  1.9015
    8UNL     H3  369  -0.027   2.200   1.740  1.9379 -0.5298  1.0727
    8UNL     H4  370   0.083   2.239   1.939 -1.7504  0.2366 -1.0881
    8UNL     H5  371   0.175   2.465   1.875 -2.1846  0.7223 -0.6385
    8UNL     H6  372   0.291   2.364   1.966 -0.9953  4.0936 -0.1391
    8UNL     H7  373   0.301   2.384   1.779 -2.6506  0.4483 -2.3161
    8UNL     H8  374   0.313   2.118   1.780  1.5600 -2.6279 -0.5797
    8UNL     H9  375   0.304   2.120   1.954  1.4513 -1.9130  0.2505
    8UNL    H10  376   0.084   1.985   1.931  0.7962  0.1798  2.2813
    8UNL    H11  377   0.039   1.855   1.727  0.2345 -0.7645 -0.0652
    8UNL    H12  378   0.201   1.896   1.654  0.4400  0.5883  0.0738
    8UNL    H13  379   0.062   2.009   1.660  0.0169  0.6152  0.1659
    8UNL    H14  380   0.286   1.909   2.023 -3.7330 -1.3057 -2.4425
    8UNL    H15  381   0.353   1.870   1.871  0.1768 -0.6668  4.1330
    8UNL    H16  382   0.286   1.676   2.025  1.3647 -1.1756 -1.5369
    8UNL    H17  383   0.244   1.530   1.857 -1.2073  0.9725  0.5262
    8UNL    H18  384   0.313   1.661   1.759 -0.7936 -0.0915  0.5922
    8UNL    H19  385   0.132   1.642   1.775  1.1479  1.6952 -0.5568
    8UNL    H20  386   0.052   1.589   2.018 -0.8244 -0.6557  2.8876
    8UNL    H21  387   0.007   1.740   1.967 -2.6619 -1.5144  0.0988
    8UNL    H22  388   0.113   1.848   2.175  1.6659  2.9968  0.1818
    8UNL    H23  389   0.148   1.690   2.370  0.6566  2.5715 -1.0991
    8UNL    H24  390   0.260   1.639   2.241  1.1995 -0.7294  0.6979
    8UNL    H25  391   0.117   1.559   2.268  1.1757  0.0500 -0.3442
    8UNL    H26  392  -0.076   1.777   2.324 -0.8673  2.3378  0.7489
    8UNL    H27  393  -0.128   1.666   2.201  2.2967 -0.1423  0.4369
    8UNL    H28  394  -0.140   1.881   2.054 -0.5149  1.4109  1.7901
    8UNL    H29  395  -0.320   1.904   2.294  0.4778  0.6801  0.0047
    8UNL    H30  396  -0.352   1.770   2.189 -0.5049 -0.8372  3.5310
    8UNL    H31  397  -0.350   1.929   2.115  0.4756 -1.3182  1.0020
    8UNL    H32  398  -0.107   2.046   2.318 -1.2574  0.1221 -0.5049
    8UNL    H33  399   0.001   2.034   2.195  0.8357  1.3850  0.6447
    8UNL    H34  400  -0.164   2.104   2.156 -0.3572  1.3461  0.6594
    9UNL     C1  401   0.308   0.778   2.101 -0.6059 -0.1164  0.4648
    9UNL     C2  402   0.195   0.687   2.091  0.4263 -0.4014 -0.0734
    9UNL     C3  403   0.068   0.752   2.139 -0.2229 -0.2296  0.6835
    9UNL     C4  404   0.233   0.543   2.153  0.4550 -0.1055 -0.2471
    9UNL     C5  405   0.134   0.422   2.163 -0.6246  0.0813 -0.0489
    9UNL     C6  406   0.109   0.361   2.022 -0.7304  0.0825 -0.6810
    9UNL     C7  407   0.198   0.314   2.260 -0.5185 -0.3373  0.3914
    9UNL     C8  408   0.111   0.194   2.302  0.3899 -0.0619 -0.7521
    9UNL     C9  409   0.117   0.071   2.199 -0.1090  0.1453 -0.4813
    9UNL    C10  410  -0.038   0.226   2.341  0.0569  0.4542 -0.2815
    9UNL    C11  411  -0.071   0.316   2.460 -0.1086  0.1528  0.1540
    9UNL    C12  412  -0.031   0.248   2.594 -0.2372  0.1764  0.4819
    9UNL    C13  413  -0.220   0.345   2.453 -0.2367  0.2989  0.1623
    9UNL    C14  414  -0.284   0.430   2.572  0.2132 -0.3545  0.6508
    9UNL    C15  415  -0.210   0.559   2.589 -0.3237  0.2936 -0.7197
    9UNL    C16  416  -0.443   0.432   2.548  0.1689 -0.2151 -0.3238
    9UNL     H1  417   0.286   0.880   2.059 -1.2253  2.1475  0.6577
    9UNL     H2  418   0.347   0.804   2.203  0.1044 -0.9434 -3.4220
    9UNL     H3  419   0.390   0.746   2.036  0.0586 -1.3636  1.5183
    9UNL     H4  420   0.191   0.668   1.986  0.4157 -0.9002  1.8156
    9UNL     H5  421   0.082   0.785   2.248 -1.9404 -1.8533  2.0695
    9UNL     H6  422   0.060   0.850   2.087  1.1184 -1.2001  0.4699
    9UNL     H7  423  -0.020   0.691   2.133  2.6639  1.5897 -0.8999
    9UNL     H8  424   0.319   0.515   2.091  0.0063  1.1811  1.5854
    9UNL     H9  425   0.261   0.562   2.255  0.2089  0.4730 -1.2185
    9UNL    H10  426   0.041   0.474   2.198 -2.3801 -1.8309  2.4415
    9UNL    H11  427   0.101   0.436   1.949 -1.5256 -0.9597 -0.2729
    9UNL    H12  428   0.013   0.312   2.028  1.9381  3.5134  1.1966
    9UNL    H13  429   0.187   0.296   1.987  1.1169  1.7318 -1.1720
    9UNL    H14  430   0.229   0.362   2.356  0.3772  2.3277  0.5812
    9UNL    H15  431   0.287   0.278   2.211  2.8895 -2.6453  1.6964
    9UNL    H16  432   0.158   0.157   2.393  0.8648 -0.6364  3.3609
    9UNL    H17  433   0.214   0.031   2.181  0.4683 -1.3516 -1.1506
    9UNL    H18  434   0.081   0.113   2.108 -0.4360  1.8372 -0.1504
    9UNL    H19  435   0.055  -0.008   2.229 -0.9014 -0.1550 -2.7331
    9UNL    H20  436  -0.091   0.125   2.352 -0.8920  0.4283  2.8231
    9UNL    H21  437  -0.082   0.279   2.252  2.9509 -0.0631  0.5274
    9UNL    H22  438  -0.024   0.413   2.453  0.4271 -1.1343  3.4735
    9UNL    H23  439  -0.053   0.312   2.682  1.6597  5.0927 -0.5758
    9UNL    H24  440   0.076   0.226   2.610  0.5272 -0.4364  2.1894
    9UNL    H25  441  -0.090   0.160   2.599  1.2227  1.7245 -0.8466
    9UNL    H26  442  -0.268   0.250   2.446 -0.6702  1.9389  2.4492
    9UNL    H27  443  -0.251   0.384   2.352 -0.8693 -0.9764 -1.7059
    9UNL    H28  444  -0.275   0.367   2.661 -0.4537  0.8854 -0.6504
    9UNL    H29  445  -0.215   0.615   2.492 -2.9324 -0.5721  2.2101
    9UNL    H30  446  -0.101   0.554   2.614  1.1298  0.9455 -3.2479
    9UNL    H31  447  -0.268   0.608   2.672  0.0594 -1.1986  0.4287
    9UNL    H32  448  -0.486   0.332   2.536  0.2028  1.5006  1.6474
    9UNL    H33  449  -0.496   0.458   2.640  1.1462 -1.3976 -1.0164
    9UNL    H34  450  -0.468   0.504   2.467  3.0375 -1.8732 -3.1762
   10UNL     C1  451   1.246   1.701   0.199  0.8673  0.4557 -0.3857
   10UNL     C2  452   1.245   1.775   0.070 -0.8612 -0.1664  0.1306
   10UNL     C3  453   1.220   1.684  -0.045  0.4778 -0.4472  0.1956
   10UNL     C4  454   1.378   1.855   0.053 -0.6723 -0.3396 -0.5863
   10UNL     C5  455   1.394   1.948  -0.072  0.6302 -0.9291  0.1734
   10UNL     C6  456   1.305   2.070  -0.067 -0.3954 -0.2268 -0.5457
   10UNL     C7  457   1.543   1.981  -0.090 -0.0309 -0.2473  0.6759
   10UNL     C8  458   1.595   2.035  -0.227 -0.6861 -0.3837 -0.4686
   10UNL     C9  459   1.573   2.192  -0.250 -0.1856  0.3230 -0.1598
   10UNL    C10  460   1.556   1.947  -0.354 -0.3053 -0.1697  0.1048
   10UNL    C11  461   1.589   1.796  -0.360 -1.3694  0.4063 -0.0874
   10UNL    C12  462   1.736   1.770  -0.314 -0.1569  0.3855 -0.1166
   10UNL    C13  463   1.563   1.723  -0.498 -0.3852  0.0107  0.1082
   10UNL    C14  464   1.418   1.732  -0.569  0.3366 -0.2895 -0.1262
   10UNL    C15  465   1.297   1.683  -0.489  0.9354  0.0729  0.8884
   10UNL    C16  466   1.388   1.867  -0.634 -0.0649  0.1040 -0.3259
   10UNL     H1  467   1.325   1.624   0.212 -0.2004  1.7626  1.9766
   10UNL     H2  468   1.242   1.764   0.291  0.0271 -1.0256  3.0206
   10UNL     H3  469   1.149   1.653   0.200  1.0613  1.5637  1.8650
   10UNL     H4  470   1.164   1.848   0.071  0.4522 -1.1664 -2.6495
   10UNL     H5  471   1.151   1.607  -0.020  2.0781  1.4444 -0.2399
   10UNL     H6  472   1.182   1.748  -0.120 -2.1427 -2.8355  0.9798
   10UNL     H7  473   1.310   1.639  -0.069 -0.3854  1.6064 -1.4094
   10UNL     H8  474   1.402   1.915   0.139 -1.6646  0.2878 -1.8946
   10UNL     H9  475   1.459   1.783   0.058 -0.8997  0.2254  1.1513
   10UNL    H10  476   1.366   1.885  -0.157 -1.3918 -1.5236 -1.8131
   10UNL    H11  477   1.289   2.094  -0.171  2.6643 -1.1467  1.9465
   10UNL    H12  478   1.356   2.157  -0.021 -0.8046 -2.3479 -3.0493
   10UNL    H13  479   1.207   2.055  -0.019 -1.2580 -0.6549  0.1908
   10UNL    H14  480   1.607   1.890  -0.068 -0.7680 -0.0217  0.0776
   10UNL    H15  481   1.578   2.056  -0.017 -0.8560 -0.8051  1.9729
   10UNL    H16  482   1.701   2.035  -0.220  0.7083 -1.3537 -0.3885
   10UNL    H17  483   1.622   2.225  -0.338 -2.2759  2.9202 -2.6915
   10UNL    H18  484   1.619   2.248  -0.171 -0.1941  1.6197 -1.8110
   10UNL    H19  485   1.461   2.214  -0.254 -2.0243  1.7416  1.6186
   10UNL    H20  486   1.617   2.000  -0.431  0.0838  0.2777  2.3961
   10UNL    H21  487   1.452   1.968  -0.378 -4.7136 -1.9375 -2.4751
   10UNL    H22  488   1.541   1.756  -0.273  0.8549 -3.0718 -0.1227
   10UNL    H23  489   1.751   1.797  -0.207  0.5532  1.4307  0.5769
   10UNL    H24  490   1.810   1.819  -0.382 -1.4428  2.0253  0.1953
   10UNL    H25  491   1.759   1.665  -0.318 -1.8673  1.0684 -1.4287
   10UNL    H26  492   1.585   1.614  -0.487  2.1499  2.4326  0.8787
   10UNL    H27  493   1.634   1.743  -0.574  0.2517 -0.2634  0.8314
   10UNL    H28  494   1.426   1.667  -0.660  0.1402  0.2094  0.2040
   10UNL    H29  495   1.261   1.761  -0.422 -2.2391 -0.8368 -0.1512
   10UNL    H30  496   1.319   1.583  -0.445  0.7068 -0.7900  0.2540
   10UNL    H31  497   1.214   1.659  -0.555 -1.2021  2.4440 -1.0949
   10UNL    H32  498   1.468   1.887  -0.702  0.3312  1.1858  0.1381
   10UNL    H33  499   1.308   1.851  -0.701  1.0904 -0.2913 -0.3341
   10UNL    H34  500   1.381   1.951  -0.566 -0.5495 -0.7519 -0.3231
   11UNL     C1  501   0.723   1.828   0.773  0.2366  0.2613  0.5961
   11UNL     C2  502   0.654   1.930   0.871 -0.4170  0.4383 -0.6976
   11UNL     C3  503   0.667   1.864   1.012 -0.1078  0.1528  0.2934
   11UNL     C4  504   0.519   1.982   0.811 -0.0964 -0.2743 -0.1212
   11UNL     C5  505   0.442   2.087   0.891 -0.5229  1.2353  0.0431
   11UNL     C6  506   0.526   2.218   0.926 -0.0306  0.1425  0.5973
   11UNL     C7  507   0.312   2.129   0.820 -0.0137  0.0754  0.7623
   11UNL     C8  508   0.194   2.034   0.795 -0.2548  0.5543  0.0502
   11UNL     C9  509   0.081   2.107   0.727 -0.2488  0.4731  0.1869
   11UNL    C10  510   0.149   1.967   0.929 -0.1609  0.4831 -0.2598
   11UNL    C11  511   0.016   1.884   0.949 -0.3623  0.2727  0.0277
   11UNL    C12  512   0.019   1.825   1.088  0.4415  0.4645  0.3864
   11UNL    C13  513   0.010   1.762   0.851  0.2740 -0.1432 -0.0745
   11UNL    C14  514  -0.118   1.665   0.849  0.9045 -0.8321 -0.5552
   11UNL    C15  515  -0.257   1.736   0.851  0.1687 -0.3635  0.2054
   11UNL    C16  516  -0.109   1.564   0.734  0.6910  0.3484  0.5302
   11UNL     H1  517   0.717   1.865   0.669 -2.5819 -0.2739 -2.7604
   11UNL     H2  518   0.828   1.823   0.793 -2.8733 -1.1107  1.1542
   11UNL     H3  519   0.682   1.727   0.788 -0.8509 -0.8041 -0.8404
   11UNL     H4  520   0.727   2.012   0.867  1.0512  0.9578 -1.6957
   11UNL     H5  521   0.639   1.935   1.098 -0.7167 -0.0356  0.8446
   11UNL     H6  522   0.615   1.766   1.017  0.8516  0.5757 -3.6462
   11UNL     H7  523   0.771   1.839   1.039  1.9118  0.1184  0.4420
   11UNL     H8  524   0.531   2.007   0.698  2.2316 -1.4291  2.1111
   11UNL     H9  525   0.457   1.894   0.811 -1.3485  0.6400 -0.0764
   11UNL    H10  526   0.415   2.036   0.989  2.8133  0.3716  2.0975
   11UNL    H11  527   0.557   2.275   0.834  1.3647  0.1334 -0.0933
   11UNL    H12  528   0.610   2.202   0.992 -1.8984 -1.6885  0.0388
   11UNL    H13  529   0.456   2.273   0.993 -1.9476 -0.7609 -1.1404
   11UNL    H14  530   0.336   2.155   0.715 -0.1604 -1.3338 -0.4974
   11UNL    H15  531   0.275   2.220   0.867 -0.9455 -0.7977 -2.0633
   11UNL    H16  532   0.229   1.951   0.727 -1.6303 -0.5464  0.6622
   11UNL    H17  533   0.133   2.174   0.654 -1.5701  4.1530  0.6906
   11UNL    H18  534   0.029   2.169   0.796 -1.1767 -2.4740 -1.1281
   11UNL    H19  535   0.010   2.033   0.688 -0.0509 -1.5382  0.8211
   11UNL    H20  536   0.147   2.058   0.997  0.6706  1.8819 -1.1524
   11UNL    H21  537   0.233   1.911   0.964 -1.6710  0.2393  0.3014
   11UNL    H22  538  -0.073   1.943   0.930  0.5693 -2.5430 -1.2011
   11UNL    H23  539  -0.061   1.764   1.114 -0.8935 -0.3764 -1.6307
   11UNL    H24  540   0.024   1.906   1.161 -0.9462 -0.5114 -1.5693
   11UNL    H25  541   0.109   1.766   1.094  1.4442 -1.8449 -1.1913
   11UNL    H26  542   0.094   1.700   0.863 -0.8523  4.0247 -1.4221
   11UNL    H27  543   0.014   1.815   0.755  0.4884  1.9345  0.1379
   11UNL    H28  544  -0.124   1.602   0.940  1.4408 -0.7469 -0.3837
   11UNL    H29  545  -0.260   1.801   0.765  0.0813 -0.2246  1.6412
   11UNL    H30  546  -0.266   1.796   0.942  2.1789 -1.8146  1.2628
   11UNL    H31  547  -0.344   1.674   0.839  0.5547  2.4567  0.9284
   11UNL    H32  548  -0.018   1.512   0.754 -1.2223  0.6948 -0.1069
   11UNL    H33  549  -0.190   1.491   0.737  0.4495  1.1391  1.4410
   11UNL    H34  550  -0.104   1.596   0.633 -1.6323 -1.6205 -1.1270
   12UNL     C1  551   0.359   0.183   1.446 -1.0434  0.0150 -0.0843
   12UNL     C2  552   0.323   0.285   1.552  0.1682  0.4620  0.1006
   12UNL     C3  553   0.169   0.287   1.588 -0.4727  0.4053 -0.0349
   12UNL     C4  554   0.381   0.419   1.515  0.2186  0.5687  0.5550
   12UNL     C5  555   0.380   0.526   1.634  0.1718 -0.5047 -0.0357
   12UNL     C6  556   0.470   0.488   1.751 -0.6248  0.1094  0.1222
   12UNL     C7  557   0.411   0.667   1.574  0.4381  0.5746 -0.3876
   12UNL     C8  558   0.420   0.787   1.671  0.2389 -0.5672  0.1646
   12UNL     C9  559   0.280   0.821   1.725  0.2816  0.7227  0.2061
   12UNL    C10  560   0.475   0.914   1.600  0.4086 -0.6035 -0.4317
   12UNL    C11  561   0.613   0.905   1.521 -0.0150 -0.5186 -0.0498
   12UNL    C12  562   0.726   0.861   1.620  0.0249  0.5727  0.1149
   12UNL    C13  563   0.652   1.034   1.448 -0.0656  0.3743 -0.6623
   12UNL    C14  564   0.564   1.086   1.333  0.2702 -0.3479 -0.1042
   12UNL    C15  565   0.607   1.227   1.284  0.1533 -0.0476 -0.0536
   12UNL    C16  566   0.531   0.990   1.220 -0.4997  0.1006  0.0206
   12UNL     H1  567   0.465   0.159   1.448 -3.0466  3.1990  4.8732
   12UNL     H2  568   0.298   0.094   1.455 -0.5174  1.3027 -0.7487
   12UNL     H3  569   0.344   0.228   1.351  2.7875 -0.9672 -1.1217
   12UNL     H4  570   0.376   0.254   1.647  0.9628 -0.4082 -1.2440
   12UNL     H5  571   0.132   0.194   1.619 -0.1960  1.9217  0.3480
   12UNL     H6  572   0.156   0.369   1.664  0.1209  0.3172  0.7196
   12UNL     H7  573   0.119   0.327   1.499  1.8935  1.3020  2.0155
   12UNL     H8  574   0.479   0.406   1.475 -0.5322  0.9221 -2.0584
   12UNL     H9  575   0.336   0.458   1.424 -0.7038  0.3918 -0.2595
   12UNL    H10  576   0.280   0.520   1.675 -1.9276 -1.0456 -2.4764
   12UNL    H11  577   0.482   0.562   1.829  1.4441 -1.4644  0.7958
   12UNL    H12  578   0.570   0.483   1.713 -0.9836 -0.3375  0.5025
   12UNL    H13  579   0.444   0.391   1.795 -1.0272 -1.3473 -0.3815
   12UNL    H14  580   0.333   0.687   1.497 -1.4981 -0.5639 -0.7716
   12UNL    H15  581   0.504   0.660   1.526  1.2509 -0.5382  0.1364
   12UNL    H16  582   0.496   0.766   1.747 -2.5271 -0.4522 -1.4705
   12UNL    H17  583   0.211   0.853   1.644 -0.3193 -2.7612  0.0430
   12UNL    H18  584   0.294   0.900   1.797 -0.9759 -2.2143  0.5826
   12UNL    H19  585   0.236   0.734   1.778 -0.2708 -0.5704 -1.2908
   12UNL    H20  586   0.483   0.991   1.681 -1.9515  1.2229  1.4562
   12UNL    H21  587   0.404   0.941   1.519  0.1995 -0.4957  0.3434
   12UNL    H22  588   0.593   0.833   1.444 -2.8781 -0.3032  0.4233
   12UNL    H23  589   0.698   0.793   1.700 -2.3243 -1.3527 -0.4452
   12UNL    H24  590   0.768   0.954   1.658 -1.3111  1.5474  1.1244
   12UNL    H25  591   0.821   0.823   1.577 -1.7480 -0.1251  1.4063
   12UNL    H26  592   0.751   1.008   1.397  0.7208  0.9575  0.2072
   12UNL    H27  593   0.674   1.114   1.522  3.2787 -0.3758  0.8347
   12UNL    H28  594   0.468   1.101   1.385  0.9135 -2.0245  2.5569
   12UNL    H29  595   0.711   1.227   1.257 -0.1838  2.3900 -0.7349
   12UNL    H30  596   0.586   1.303   1.360  0.6686  0.2736 -1.6651
   12UNL    H31  597   0.551   1.253   1.194  2.4999 -2.8079 -0.8496
   12UNL    H32  598   0.616   0.968   1.156 -0.4301 -0.5324  0.3514
   12UNL    H33  599   0.492   0.902   1.267  0.5845 -0.8460  2.5085
   12UNL    H34  600   0.454   1.039   1.161  0.5938 -0.7422 -1.0325
   13UNL     C1  601   0.639   0.258   1.162 -0.5410 -0.6683 -0.5865
   13UNL     C2  602   0.724   0.336   1.072 -0.9787 -0.0893  0.4008
   13UNL     C3  603   0.735   0.479   1.121  0.3353  0.0241  0.4813
   13UNL     C4  604   0.684   0.319   0.918  0.2193  0.1510  0.1537
   13UNL     C5  605   0.781   0.375   0.814  0.2126 -0.1402  0.2670
   13UNL     C6  606   0.912   0.291   0.824  0.0028 -0.3448 -0.9197
   13UNL     C7  607   0.718   0.367   0.673 -0.0249 -0.3977 -0.4608
   13UNL     C8  608   0.800   0.423   0.550  0.4276  0.1954 -0.0878
   13UNL     C9  609   0.837   0.576   0.575 -0.2643 -0.2567  0.2488
   13UNL    C10  610   0.727   0.407   0.407 -0.4863 -0.4183 -0.3434
   13UNL    C11  611   0.711   0.261   0.349  0.0137  0.3176  1.0130
   13UNL    C12  612   0.846   0.202   0.300 -0.3288 -0.6839  0.2217
   13UNL    C13  613   0.614   0.246   0.223  0.2316  0.8477  0.0757
   13UNL    C14  614   0.456   0.248   0.236  0.3515  0.2545  0.3309
   13UNL    C15  615   0.408   0.133   0.331  0.0667 -0.2307  0.0410
   13UNL    C16  616   0.401   0.388   0.271 -0.3585 -0.0714  0.1567
   13UNL     H1  617   0.537   0.283   1.148  0.4344 -1.3358 -0.0523
   13UNL     H2  618   0.647   0.147   1.139 -2.3317 -1.9672  1.2641
   13UNL     H3  619   0.679   0.272   1.267 -0.0479 -1.9877  1.5809
   13UNL     H4  620   0.825   0.285   1.079  1.4033 -2.8568  0.9161
   13UNL     H5  621   0.740   0.481   1.229 -2.2651 -1.3806  1.4878
   13UNL     H6  622   0.827   0.531   1.099  2.6316  2.3326 -0.4456
   13UNL     H7  623   0.654   0.546   1.098  3.3279  1.4069 -1.0181
   13UNL     H8  624   0.675   0.211   0.895  2.9507  0.3003 -1.8369
   13UNL     H9  625   0.581   0.357   0.908 -2.6234  0.3894  4.0830
   13UNL    H10  626   0.806   0.480   0.850 -1.8544  0.5371 -1.3934
   13UNL    H11  627   0.881   0.185   0.808 -0.4283  0.1736  4.5065
   13UNL    H12  628   0.956   0.289   0.924 -1.3306  0.2324 -0.7287
   13UNL    H13  629   0.985   0.329   0.757  1.1903  1.7838  3.3261
   13UNL    H14  630   0.621   0.424   0.678 -0.6700  1.6813 -0.4114
   13UNL    H15  631   0.688   0.268   0.648 -2.7522  2.2531  2.6005
   13UNL    H16  632   0.891   0.372   0.550  0.1614  1.4400  3.8380
   13UNL    H17  633   0.887   0.610   0.477 -0.2499  3.2322  0.0461
   13UNL    H18  634   0.907   0.595   0.661 -3.3500 -1.2373  2.8215
   13UNL    H19  635   0.745   0.626   0.591  1.0889  1.0989  0.6773
   13UNL    H20  636   0.787   0.454   0.327  0.6789  1.3129  0.6651
   13UNL    H21  637   0.632   0.465   0.392 -0.7353  0.6412 -1.9613
   13UNL    H22  638   0.676   0.200   0.433  0.1336 -0.3355 -1.4341
   13UNL    H23  639   0.892   0.262   0.215 -0.1601 -0.7453  1.1059
   13UNL    H24  640   0.827   0.098   0.262  2.1341 -1.4545  0.3813
   13UNL    H25  641   0.921   0.195   0.380  1.7468 -0.8153 -1.9353
   13UNL    H26  642   0.632   0.147   0.171 -2.4902 -1.8073 -0.7583
   13UNL    H27  643   0.647   0.319   0.143 -0.2311  1.2215 -1.8790
   13UNL    H28  644   0.412   0.226   0.140 -0.0489  0.6001  1.6449
   13UNL    H29  645   0.426   0.170   0.430 -0.4276  1.6886 -2.8393
   13UNL    H30  646   0.451   0.039   0.313  0.1748  1.6435  1.2491
   13UNL    H31  647   0.296   0.118   0.327 -3.0757  0.3765 -2.6383
   13UNL    H32  648   0.433   0.471   0.200  0.5668 -2.0065  0.3357
   13UNL    H33  649   0.296   0.380   0.270 -1.2211 -2.7691 -0.3928
   13UNL    H34  650   0.422   0.417   0.376 -0.3162  0.5349 -2.0348
   14UNL     C1  651   1.185   0.708   1.796  0.6104 -0.1053  0.5289
   14UNL     C2  652   1.331   0.680   1.754  0.0657 -0.6125 -0.1755
   14UNL     C3  653   1.422   0.752   1.845  0.3400  0.2081  0.2704
   14UNL     C4  654   1.379   0.701   1.604  0.5601  0.4773  0.2003
   14UNL     C5  655   1.287   0.628   1.503  0.2833  0.2009  0.2897
   14UNL     C6  656   1.338   0.663   1.361 -0.3618  0.6614  0.6204
   14UNL     C7  657   1.284   0.474   1.513  0.6202 -0.0253  0.3148
   14UNL     C8  658   1.189   0.393   1.413 -0.4028  0.2037 -0.1590
   14UNL     C9  659   1.049   0.464   1.410  0.3691  0.6509 -0.0991
   14UNL    C10  660   1.196   0.242   1.442 -0.1232  0.4183 -0.4688
   14UNL    C11  661   1.341   0.171   1.462 -0.1412  0.4349  0.3381
   14UNL    C12  662   1.438   0.220   1.354 -0.2638  0.1759  0.1105
   14UNL    C13  663   1.329   0.019   1.463  0.1142  0.1094  0.1886
   14UNL    C14  664   1.250  -0.045   1.584  0.5534  0.0455  0.0668
   14UNL    C15  665   1.237  -0.193   1.559  0.5199 -0.0567  0.1338
   14UNL    C16  666   1.316  -0.019   1.720 -0.0672  0.6337  0.0452
   14UNL     H1  667   1.127   0.634   1.742  0.5950  0.2344 -1.3834
   14UNL     H2  668   1.161   0.693   1.899 -2.7826 -1.1874 -3.6099
   14UNL     H3  669   1.146   0.803   1.758 -0.0575 -1.7810 -3.2866
   14UNL     H4  670   1.342   0.571   1.777  0.4156  2.4582  0.1999
   14UNL     H5  671   1.527   0.725   1.823  0.1385  1.4462 -1.1519
   14UNL     H6  672   1.403   0.858   1.850  0.6965 -1.6470  3.2874
   14UNL     H7  673   1.404   0.708   1.939 -0.0461 -0.8968 -4.2301
   14UNL     H8  674   1.372   0.813   1.580 -0.1901 -1.0217 -0.0966
   14UNL     H9  675   1.483   0.659   1.601 -1.4838 -1.8899 -2.0931
   14UNL    H10  676   1.188   0.659   1.519 -0.0077 -1.5182  1.6125
   14UNL    H11  677   1.285   0.613   1.283  0.1520 -1.8004  0.4661
   14UNL    H12  678   1.441   0.628   1.351  0.8616 -1.6279  2.5135
   14UNL    H13  679   1.325   0.774   1.343 -1.3606 -0.0702  0.0408
   14UNL    H14  680   1.246   0.446   1.614 -1.8185 -0.2026  1.1913
   14UNL    H15  681   1.388   0.441   1.509 -2.1661 -0.1700 -2.7592
   14UNL    H16  682   1.235   0.403   1.316  1.1149 -1.2925 -0.2199
   14UNL    H17  683   1.042   0.570   1.382  1.0751 -1.3017  2.5176
   14UNL    H18  684   1.009   0.458   1.517 -1.2180 -2.5416 -0.2673
   14UNL    H19  685   0.983   0.407   1.337 -2.0744  0.4839  0.2735
   14UNL    H20  686   1.144   0.201   1.349 -0.7628  0.8803 -1.3341
   14UNL    H21  687   1.129   0.219   1.528  1.9579 -1.0624 -1.1175
   14UNL    H22  688   1.378   0.199   1.555 -3.1076 -1.1755  0.5980
   14UNL    H23  689   1.528   0.165   1.355  1.3871 -0.7275  2.2310
   14UNL    H24  690   1.472   0.326   1.362 -0.5842  2.2074  1.3547
   14UNL    H25  691   1.397   0.194   1.264 -1.8977  1.2580  0.9761
   14UNL    H26  692   1.429  -0.031   1.461 -3.0341 -0.1928  1.5072
   14UNL    H27  693   1.266  -0.010   1.373  0.8145  1.4099 -3.6740
   14UNL    H28  694   1.146  -0.000   1.587 -0.7094  1.5103 -2.8169
   14UNL    H29  695   1.181  -0.214   1.467  0.3690 -1.1864  1.3034
   14UNL    H30  696   1.202  -0.260   1.646 -0.4658  0.1396  1.2262
   14UNL    H31  697   1.336  -0.226   1.536 -0.5826  1.0712 -2.1409
   14UNL    H32  698   1.326   0.088   1.745 -0.3536 -1.4929  3.2103
   14UNL    H33  699   1.275  -0.079   1.803  0.0633 -0.0063 -0.6789
   14UNL    H34  700   1.413  -0.056   1.700  1.5220  0.2779 -1.3609
   15UNL     C1  701   1.577   1.995   0.393 -0.7559 -0.6136  0.6594
   15UNL     C2  702   1.665   2.102   0.316 -0.1081 -1.2587 -0.2675
   15UNL     C3  703   1.792   2.017   0.269 -0.9379 -0.4989  0.1104
   15UNL     C4  704   1.706   2.209   0.419 -0.5751  0.9069  0.6755
   15UNL     C5  705   1.792   2.326   0.356 -0.6801 -0.2194 -0.4725
   15UNL     C6  706   1.734   2.395   0.231  0.4832 -0.5976  0.0853
   15UNL     C7  707   1.834   2.441   0.455  0.1043 -0.8536  0.4053
   15UNL     C8  708   1.975   2.431   0.517 -0.3840 -0.6180 -0.0120
   15UNL     C9  709   2.082   2.433   0.410  0.0853  0.2331  0.5516
   15UNL    C10  710   1.996   2.310   0.614 -0.6175 -0.0030 -0.6556
   15UNL    C11  711   1.895   2.313   0.730  0.3819 -0.9244  0.3670
   15UNL    C12  712   1.898   2.442   0.814 -0.0730  0.0646 -0.8338
   15UNL    C13  713   1.906   2.186   0.822  0.4846 -0.0401  0.2964
   15UNL    C14  714   1.797   2.138   0.921 -0.3124  0.3747 -0.6933
   15UNL    C15  715   1.696   2.039   0.850  0.3608 -0.9639 -0.1559
   15UNL    C16  716   1.858   2.066   1.048 -0.3323 -0.1975  0.3561
   15UNL     H1  717   1.569   1.917   0.323  1.4071  0.8882  0.6689
   15UNL     H2  718   1.629   1.962   0.485 -1.1854 -0.8510  2.0833
   15UNL     H3  719   1.476   2.030   0.425  1.2270 -0.2755 -3.1427
   15UNL     H4  720   1.606   2.151   0.230  0.0574 -2.4163 -2.3423
   15UNL     H5  721   1.762   1.929   0.206  3.5197 -1.2084 -2.4984
   15UNL     H6  722   1.862   2.087   0.214  0.2235  0.6206 -1.4860
   15UNL     H7  723   1.846   1.978   0.358  1.4188  3.5112  0.6783
   15UNL     H8  724   1.612   2.250   0.463  0.5963 -1.2726  2.3069
   15UNL     H9  725   1.758   2.165   0.501  0.1736  3.0785  0.1763
   15UNL    H10  726   1.887   2.281   0.329 -1.0715  3.7893 -1.3479
   15UNL    H11  727   1.739   2.321   0.139  0.2748 -0.0884  0.3197
   15UNL    H12  728   1.801   2.475   0.203  0.7916  3.3051  2.3489
   15UNL    H13  729   1.635   2.436   0.259 -1.8205  2.6855 -1.1546
   15UNL    H14  730   1.752   2.451   0.524 -1.4798 -0.4820  2.4266
   15UNL    H15  731   1.843   2.543   0.403  1.2394  2.1585 -1.7269
   15UNL    H16  732   1.990   2.524   0.579  2.6883 -1.3261 -0.5846
   15UNL    H17  733   2.184   2.439   0.440  1.1064 -0.2167 -1.8903
   15UNL    H18  734   2.071   2.522   0.341  1.1573  0.2217  2.2353
   15UNL    H19  735   2.080   2.344   0.346 -1.3064  1.3186 -1.8058
   15UNL    H20  736   2.104   2.318   0.653  0.4864  2.6165  1.4346
   15UNL    H21  737   1.979   2.215   0.561  0.8777  3.5557 -3.6861
   15UNL    H22  738   1.790   2.310   0.683 -0.6429 -0.3254 -2.6521
   15UNL    H23  739   2.004   2.450   0.844 -0.5483  2.1183 -1.9961
   15UNL    H24  740   1.843   2.430   0.906  2.8879  0.3997 -0.6120
   15UNL    H25  741   1.866   2.530   0.764  1.4200  2.7122  0.9224
   15UNL    H26  742   1.995   2.209   0.889 -0.6265  3.8385  0.1922
   15UNL    H27  743   1.929   2.093   0.764  0.2509  0.7214 -0.5179
   15UNL    H28  744   1.751   2.231   0.968  0.2405 -0.6770  1.0264
   15UNL    H29  745   1.646   2.097   0.758 -1.8801  1.6895 -1.6953
   15UNL    H30  746   1.617   2.018   0.918  1.3392  0.0580 -2.4960
   15UNL    H31  747   1.748   1.948   0.819  0.7279 -0.7295  0.3094
   15UNL    H32  748   1.907   2.136   1.118  0.3029  0.2258  0.2991
   15UNL    H33  749   1.765   2.045   1.098 -3.1034 -0.8148 -2.3604
   15UNL    H34  750   1.923   1.983   1.030 -0.8722 -1.8095 -1.9698
   16UNL     C1  751   2.348   0.099   0.751 -0.3413  0.0885 -0.6048
   16UNL     C2  752   2.331   0.224   0.670 -0.1617  0.9865  0.3664
   16UNL     C3  753   2.469   0.260   0.611  0.0139  0.1588  0.6576
   16UNL     C4  754   2.270   0.339   0.755  0.5646 -0.0546  0.3351
   16UNL     C5  755   2.219   0.461   0.682 -0.0438  0.1850  0.4869
   16UNL     C6  756   2.090   0.434   0.613  0.2737 -0.9587 -0.2349
   16UNL     C7  757   2.206   0.584   0.770 -0.1374 -0.2396 -0.0099
   16UNL     C8  758   2.307   0.704   0.756 -0.0496 -0.0882  0.7736
   16UNL     C9  759   2.296   0.759   0.608  0.5109 -0.2695 -0.2911
   16UNL    C10  760   2.458   0.655   0.773 -0.8493  0.2390  0.5344
   16UNL    C11  761   2.501   0.637   0.922  0.2488  0.3994 -0.5264
   16UNL    C12  762   2.505   0.771   1.006 -0.2267  0.3091 -0.1592
   16UNL    C13  763   2.640   0.563   0.925  0.9050 -0.3283 -0.0543
   16UNL    C14  764   2.698   0.511   1.061  0.2689  0.1574 -0.1018
   16UNL    C15  765   2.762   0.625   1.153  0.1696 -0.4259 -0.6309
   16UNL    C16  766   2.600   0.426   1.144 -0.0465 -0.0197  0.6285
   16UNL     H1  767   2.364   0.015   0.687  3.7557 -1.3483  1.3505
   16UNL     H2  768   2.434   0.113   0.821  0.5836 -2.0740  1.6366
   16UNL     H3  769   2.260   0.064   0.803 -0.7071  3.3816  1.7607
   16UNL     H4  770   2.251   0.192   0.600 -1.3830  0.8298  1.2372
   16UNL     H5  771   2.455   0.332   0.527 -0.8777 -0.0142 -1.5936
   16UNL     H6  772   2.551   0.284   0.686  2.3227 -3.1945 -1.2688
   16UNL     H7  773   2.516   0.174   0.561  1.8180 -2.0163 -1.1517
   16UNL     H8  774   2.191   0.298   0.815  0.2337 -1.6252  3.0092
   16UNL     H9  775   2.342   0.369   0.833  2.8826 -1.1936 -1.8639
   16UNL    H10  776   2.287   0.474   0.599 -0.5230  0.5169  1.1468
   16UNL    H11  777   2.095   0.365   0.530 -1.2361  0.4350 -0.3190
   16UNL    H12  778   2.041   0.532   0.584  1.0273 -1.6323 -1.1127
   16UNL    H13  779   2.029   0.388   0.683  0.0189  2.0064  0.6634
   16UNL    H14  780   2.212   0.545   0.873  0.4069 -0.2406  3.9537
   16UNL    H15  781   2.107   0.630   0.764  1.0977  0.9281 -0.7058
   16UNL    H16  782   2.270   0.788   0.819 -0.0727  2.3439 -1.8186
   16UNL    H17  783   2.204   0.816   0.600  2.8662  0.7138 -0.5966
   16UNL    H18  784   2.298   0.686   0.528  0.3663  0.4371  1.4642
   16UNL    H19  785   2.367   0.843   0.579  0.0415  3.8819  1.7203
   16UNL    H20  786   2.524   0.731   0.726  1.0089  2.4525  1.6046
   16UNL    H21  787   2.485   0.560   0.721 -0.0328 -0.0669 -0.5956
   16UNL    H22  788   2.420   0.580   0.965 -0.8669  2.9141 -0.3895
   16UNL    H23  789   2.501   0.744   1.115 -0.6318 -1.3929 -0.4823
   16UNL    H24  790   2.426   0.843   0.978 -1.4472 -0.4772 -0.4352
   16UNL    H25  791   2.598   0.807   0.971 -0.9798 -2.9096 -0.4954
   16UNL    H26  792   2.722   0.625   0.885  2.7970  1.5030  2.1869
   16UNL    H27  793   2.633   0.484   0.853  0.0651 -1.1455  0.6516
   16UNL    H28  794   2.780   0.446   1.029  0.7565 -0.4527  1.0142
   16UNL    H29  795   2.838   0.682   1.104  0.5842 -1.4044 -3.7214
   16UNL    H30  796   2.809   0.577   1.240  0.6815  2.3150  0.4774
   16UNL    H31  797   2.695   0.698   1.199 -0.0160  1.3555 -2.0332
   16UNL    H32  798   2.511   0.485   1.170 -0.2770  1.2973  1.5555
   16UNL    H33  799   2.556   0.339   1.089  0.4050 -1.1399  0.2585
   16UNL    H34  800   2.641   0.382   1.236  2.9472 -1.0180  1.7743
   17UNL     C1  801   0.657   2.252   0.423 -0.0660  0.0043 -0.0891
   17UNL     C2  802   0.768   2.141   0.443 -0.0442  0.1347 -0.7921
   17UNL     C3  803   0.820   2.141   0.592  0.1847 -0.1277  0.6559
   17UNL     C4  804   0.885   2.153   0.340  0.6020  0.0942  0.2060
   17UNL     C5  805   0.844   2.161   0.194 -0.1733 -0.0136 -1.0596
   17UNL     C6  806   0.975   2.179   0.117  0.6766 -0.1374 -0.2318
   17UNL     C7  807   0.780   2.026   0.151 -0.2099 -0.5070  0.0040
   17UNL     C8  808   0.623   2.008   0.134  0.1865 -0.6138 -0.0742
   17UNL     C9  809   0.587   1.862   0.099  0.5172  0.5147  0.1363
   17UNL    C10  810   0.561   2.116   0.038 -0.0149  0.2200  0.1068
   17UNL    C11  811   0.404   2.105   0.017 -0.0367  0.5445  0.0698
   17UNL    C12  812   0.351   2.179  -0.115  0.5397  0.0473 -0.5062
   17UNL    C13  813   0.329   2.154   0.146  0.1809 -0.4406  0.5129
   17UNL    C14  814   0.172   2.145   0.155 -0.0688  0.0769 -0.7733
   17UNL    C15  815   0.135   1.999   0.165  0.0215  0.0156  0.0473
   17UNL    C16  816   0.111   2.231   0.266 -0.4607  0.7459  0.2759
   17UNL     H1  817   0.584   2.241   0.503  0.2833 -1.0926  0.3454
   17UNL     H2  818   0.705   2.355   0.416  0.8570  1.6094  1.2740
   17UNL     H3  819   0.604   2.241   0.329 -0.9300  0.4712 -1.1221
   17UNL     H4  820   0.729   2.037   0.444  0.1907 -0.4045  1.0411
   17UNL     H5  821   0.737   2.142   0.673  0.9278  0.2526  0.4208
   17UNL     H6  822   0.888   2.060   0.613 -0.8075  0.5530  0.4622
   17UNL     H7  823   0.864   2.236   0.597 -1.2633  0.3229  0.1808
   17UNL     H8  824   0.943   2.243   0.366 -1.2779 -1.3937  1.0009
   17UNL     H9  825   0.953   2.066   0.354  2.0342 -0.0923 -1.2041
   17UNL    H10  826   0.775   2.239   0.172  0.2390 -0.0466  2.7785
   17UNL    H11  827   1.010   2.282   0.139 -2.9214 -0.8013 -1.0072
   17UNL    H12  828   0.963   2.154   0.017 -0.3724 -1.8188 -0.8566
   17UNL    H13  829   1.046   2.109   0.150 -2.1569  0.5832 -0.1327
   17UNL    H14  830   0.821   1.939   0.212 -1.7567 -0.6729 -0.2814
   17UNL    H15  831   0.823   2.002   0.049  1.6988  0.0300 -3.2412
   17UNL    H16  832   0.582   2.025   0.237 -0.0660 -1.2652 -0.7812
   17UNL    H17  833   0.482   1.850   0.124 -1.7585 -2.4702 -1.0147
   17UNL    H18  834   0.640   1.797   0.168 -1.3370 -0.0061  0.1878
   17UNL    H19  835   0.600   1.838  -0.004  1.4426 -1.8975 -1.7765
   17UNL    H20  836   0.606   2.095  -0.056  0.0068 -1.0647  3.8797
   17UNL    H21  837   0.583   2.225   0.068  0.8731  2.5001  1.9337
   17UNL    H22  838   0.387   1.996  -0.003 -1.0417 -0.1355 -1.0244
   17UNL    H23  839   0.361   2.292  -0.100 -1.7373  0.0362  0.1040
   17UNL    H24  840   0.246   2.150  -0.135 -2.4640 -0.9743 -1.6211
   17UNL    H25  841   0.415   2.152  -0.202  0.1072 -0.3196 -0.8624
   17UNL    H26  842   0.356   2.253   0.174 -0.8565  0.9270  2.6353
   17UNL    H27  843   0.370   2.091   0.229  0.3799 -1.4918  0.6167
   17UNL    H28  844   0.129   2.184   0.065  2.1976  0.2673 -3.9364
   17UNL    H29  845   0.021   1.988   0.175 -1.7046  1.8126  1.9956
   17UNL    H30  846   0.173   1.974   0.265 -2.0227  0.9618 -1.7011
   17UNL    H31  847   0.176   1.938   0.087  0.2008  0.7609  1.0020
   17UNL    H32  848   0.134   2.195   0.363 -0.7971 -0.3086  2.3608
   17UNL    H33  849   0.134   2.336   0.255 -0.4033 -2.7470 -1.1351
   17UNL    H34  850   0.002   2.227   0.250 -0.4770  0.6677  2.9807
   18UNL     C1  851   0.931   0.911   1.944  0.2015  0.3095 -0.0387
   18UNL     C2  852   0.858   1.048   1.929  0.2019 -0.2345  0.5983
   18UNL     C3  853   0.950   1.156   1.991 -0.0123  0.1164 -0.1706
   18UNL     C4  854   0.715   1.037   1.998  0.2358  0.2709  0.6923
   18UNL     C5  855   0.617   1.161   2.003  0.0922 -0.7307 -0.7147
   18UNL     C6  856   0.599   1.236   1.865  0.0603 -0.1188 -0.3709
   18UNL     C7  857   0.476   1.108   2.066  0.5405 -0.4091  0.8441
   18UNL     C8  858   0.409   1.198   2.172  0.5400 -0.0053 -1.1104
   18UNL     C9  859   0.363   1.330   2.105 -0.4585 -0.4469  0.6789
   18UNL    C10  860   0.488   1.224   2.308  0.2024  0.3953 -0.1980
   18UNL    C11  861   0.407   1.291   2.415 -0.3530  0.2373 -1.3251
   18UNL    C12  862   0.505   1.334   2.535  0.5569  0.6468  0.7274
   18UNL    C13  863   0.274   1.216   2.454  0.2542 -0.9937 -0.4490
   18UNL    C14  864   0.193   1.271   2.578  0.3896  0.2646  0.1579
   18UNL    C15  865   0.148   1.417   2.557 -1.0600 -0.8089 -0.2329
   18UNL    C16  866   0.074   1.172   2.594 -0.4163  1.0700 -1.1826
   18UNL     H1  867   0.949   0.887   2.047 -0.1137  0.4788 -1.3467
   18UNL     H2  868   0.872   0.833   1.900 -1.1469 -0.2241 -0.9950
   18UNL     H3  869   1.022   0.913   1.888  1.5538 -0.2546  1.9605
   18UNL     H4  870   0.832   1.086   1.825 -1.1203  3.1319 -2.5996
   18UNL     H5  871   1.056   1.154   1.953  2.5657  1.6639  0.7796
   18UNL     H6  872   0.910   1.257   1.985 -0.0475  0.0143  0.6527
   18UNL     H7  873   0.967   1.144   2.098  0.8375  3.0729 -0.2381
   18UNL     H8  874   0.654   0.958   1.954  0.2898 -0.8419 -2.0043
   18UNL     H9  875   0.730   0.986   2.089  0.1411 -2.2071 -2.2814
   18UNL    H10  876   0.660   1.232   2.078  1.8126  0.7688  0.1553
   18UNL    H11  877   0.689   1.280   1.839 -0.9069  0.7866  1.2603
   18UNL    H12  878   0.525   1.312   1.882  1.7173 -1.7328 -0.6710
   18UNL    H13  879   0.561   1.179   1.784 -2.5026  2.0611 -0.8739
   18UNL    H14  880   0.493   1.012   2.111  2.2851  2.5415 -0.3315
   18UNL    H15  881   0.405   1.095   1.982 -0.6398 -1.7199 -1.3085
   18UNL    H16  882   0.322   1.142   2.201  0.5193  1.0608  0.8161
   18UNL    H17  883   0.437   1.417   2.107  1.7548  1.9392 -4.3245
   18UNL    H18  884   0.278   1.370   2.159  1.7133 -0.6317 -1.7121
   18UNL    H19  885   0.326   1.319   2.004  0.1683  0.1567  0.3129
   18UNL    H20  886   0.570   1.300   2.278  0.0859  0.4785  0.2349
   18UNL    H21  887   0.533   1.130   2.350 -2.3989  2.9464  0.5154
   18UNL    H22  888   0.381   1.387   2.371  0.9431 -1.8160 -0.9175
   18UNL    H23  889   0.590   1.267   2.554  1.2105  1.6285  0.9641
   18UNL    H24  890   0.453   1.340   2.634  1.1440  0.4323  0.2950
   18UNL    H25  891   0.548   1.435   2.514 -0.7086  1.0742  3.1926
   18UNL    H26  892   0.312   1.114   2.456  2.5220 -1.3906 -2.3497
   18UNL    H27  893   0.200   1.225   2.372 -1.6479  1.4999 -2.3888
   18UNL    H28  894   0.261   1.275   2.666  2.1506 -1.5342  0.5420
   18UNL    H29  895   0.111   1.459   2.655 -1.3153 -0.1982 -1.6475
   18UNL    H30  896   0.063   1.434   2.493  0.0494  1.3527 -0.5465
   18UNL    H31  897   0.235   1.478   2.523  1.4201 -1.0562 -2.8929
   18UNL    H32  898   0.097   1.068   2.584 -1.7309  0.3513 -0.5535
   18UNL    H33  899   0.039   1.171   2.693  1.4611 -0.9206  0.3302
   18UNL    H34  900  -0.006   1.199   2.520 -0.2732  4.0017 -0.2726
   19UNL     C1  901   1.389   0.126   1.002 -0.0042 -0.2000  0.3381
   19UNL     C2  902   1.390   0.041   0.870  0.1981 -0.3185  0.1516
   19UNL     C3  903   1.525   0.046   0.799 -0.4184  0.0341 -0.2050
   19UNL     C4  904   1.277   0.092   0.780  0.1254 -0.2453  0.8287
   19UNL     C5  905   1.244   0.004   0.658  0.0412 -0.0837  0.4697
   19UNL     C6  906   1.164  -0.126   0.699 -0.4381 -0.8939  0.1126
   19UNL     C7  907   1.157   0.090   0.556  0.0243 -0.3936 -0.7811
   19UNL     C8  908   1.222   0.147   0.428  0.0542 -0.2450  0.0685
   19UNL     C9  909   1.248   0.022   0.329  0.0622 -0.4849  0.3756
   19UNL    C10  910   1.336   0.256   0.442  0.1306  0.4368 -0.0882
   19UNL    C11  911   1.317   0.385   0.522  0.0071 -0.6732 -0.3678
   19UNL    C12  912   1.232   0.500   0.443  0.6326  0.0640 -0.7405
   19UNL    C13  913   1.448   0.425   0.597 -0.2252 -0.5133 -0.5817
   19UNL    C14  914   1.554   0.497   0.499  0.0905  0.4200  0.1854
   19UNL    C15  915   1.640   0.587   0.581 -0.0229  0.2451 -0.2061
   19UNL    C16  916   1.634   0.403   0.400 -0.0209  0.0387  0.8649
   19UNL     H1  917   1.317   0.091   1.074 -1.5281  1.3968 -4.5031
   19UNL     H2  918   1.490   0.137   1.048 -0.4049 -0.8764 -0.2109
   19UNL     H3  919   1.362   0.232   0.975  0.4592  1.3190 -1.0386
   19UNL     H4  920   1.372  -0.065   0.889  0.6281 -2.7120 -2.5476
   19UNL     H5  921   1.550   0.133   0.741  1.8691 -1.4970 -0.9729
   19UNL     H6  922   1.600   0.031   0.875 -0.6670  0.6673 -1.3624
   19UNL     H7  923   1.542  -0.035   0.732  0.6898 -1.5394  2.7635
   19UNL     H8  924   1.184   0.100   0.833  0.7202 -1.7333  0.3916
   19UNL     H9  925   1.305   0.192   0.748 -1.3623  1.9526 -0.1404
   19UNL    H10  926   1.342  -0.013   0.606  0.4943  4.0157 -2.9121
   19UNL    H11  927   1.122  -0.177   0.614  1.7730  2.6474  2.2558
   19UNL    H12  928   1.081  -0.102   0.779 -0.9508 -0.5867  2.6710
   19UNL    H13  929   1.229  -0.197   0.750  1.0930 -1.9878  0.9262
   19UNL    H14  930   1.125   0.177   0.609  0.1961  1.4544 -0.7995
   19UNL    H15  931   1.073   0.036   0.518 -0.0590 -0.3060 -2.2199
   19UNL    H16  932   1.141   0.203   0.377  2.7692 -1.5390 -1.8982
   19UNL    H17  933   1.161  -0.043   0.313 -0.3358 -1.2668 -0.5471
   19UNL    H18  934   1.323  -0.035   0.375 -2.3146  1.5334  1.2886
   19UNL    H19  935   1.280   0.051   0.233 -0.0972  0.8671 -0.2823
   19UNL    H20  936   1.374   0.267   0.345 -2.7346  0.6508 -0.2178
   19UNL    H21  937   1.414   0.203   0.481 -1.1068  2.5330 -0.2242
   19UNL    H22  938   1.261   0.355   0.613 -0.3926 -1.2393  1.6225
   19UNL    H23  939   1.287   0.533   0.353  0.7389  1.1190  1.6413
   19UNL    H24  940   1.219   0.586   0.509  0.3266 -1.9209 -0.3807
   19UNL    H25  941   1.129   0.458   0.423  0.1679  0.4506 -1.0276
   19UNL    H26  942   1.502   0.339   0.641 -0.5866  0.3462  2.1864
   19UNL    H27  943   1.424   0.483   0.688 -0.5513 -0.3857 -0.8637
   19UNL    H28  944   1.503   0.564   0.425  1.3599 -2.0903  0.8285
   19UNL    H29  945   1.698   0.516   0.642 -2.6620  1.2077  1.8586
   19UNL    H30  946   1.599   0.666   0.647  1.5745 -0.3114  0.8674
   19UNL    H31  947   1.709   0.646   0.523  0.2337 -3.5768  1.6902
   19UNL    H32  948   1.725   0.353   0.435  0.3561 -1.1906  0.4545
   19UNL    H33  949   1.580   0.331   0.341  0.3084  0.8872  0.9190
   19UNL    H34  950   1.670   0.469   0.327 -1.9155 -0.5071  1.1850
   20UNL     C1  951   1.972   2.187   1.912  0.0238  0.3656  0.4052
   20UNL     C2  952   1.979   2.325   1.845 -0.4634  0.8419  1.4405
   20UNL     C3  953   2.084   2.420   1.903  1.6674  0.0183  0.1149
   20UNL     C4  954   1.831   2.375   1.823 -0.4124  0.2828 -0.1702
   20UNL     C5  955   1.814   2.502   1.741 -0.0028  0.1508  0.0940
   20UNL     C6  956   1.867   2.492   1.600 -0.1089  1.0752  0.8105
   20UNL     C7  957   1.667   2.543   1.717 -0.5275  0.6048  0.3097
   20UNL     C8  958   1.597   2.634   1.814  0.3889 -0.0915  0.7576
   20UNL     C9  959   1.660   2.769   1.807  0.5261 -0.1129 -0.3844
   20UNL    C10  960   1.585   2.580   1.957 -0.3682 -0.3321  0.4653
   20UNL    C11  961   1.470   2.629   2.048 -0.3883 -0.0035 -0.1726
   20UNL    C12  962   1.482   2.564   2.195 -0.5194 -0.6227 -0.3884
   20UNL    C13  963   1.332   2.609   1.981 -0.3188 -0.7533  0.3797
   20UNL    C14  964   1.215   2.675   2.062 -0.5783 -0.2405  0.3223
   20UNL    C15  965   1.228   2.826   2.080 -0.1258  0.3809 -0.2495
   20UNL    C16  966   1.083   2.632   1.991  0.5367 -0.5902  0.3120
   20UNL     H1  967   1.894   2.192   1.991 -0.6339  0.9641  2.0436
   20UNL     H2  968   1.936   2.116   1.837 -2.9521  1.3465  0.4510
   20UNL     H3  969   2.071   2.149   1.940 -0.4909 -1.7472 -0.5266
   20UNL     H4  970   2.018   2.301   1.743  1.3083 -0.6271 -1.7620
   20UNL     H5  971   2.178   2.375   1.933  0.9697 -0.0317  1.1054
   20UNL     H6  972   2.104   2.502   1.831  1.1533 -0.7056 -1.8985
   20UNL     H7  973   2.051   2.466   1.996  0.3234  1.4212  0.2165
   20UNL     H8  974   1.784   2.287   1.780  1.2649 -1.3561 -1.1955
   20UNL     H9  975   1.774   2.381   1.920 -0.7383 -1.0614 -1.4439
   20UNL    H10  976   1.868   2.581   1.787  0.3396  1.6151 -0.8224
   20UNL    H11  977   1.800   2.430   1.534  1.6082  2.1116  2.0325
   20UNL    H12  978   1.971   2.453   1.593  2.3405 -1.1998 -4.0559
   20UNL    H13  979   1.873   2.594   1.550 -1.8101  1.7004 -2.8845
   20UNL    H14  980   1.608   2.451   1.723  3.4871  0.2633 -0.5376
   20UNL    H15  981   1.657   2.587   1.616  0.3536  0.9896  2.3221
   20UNL    H16  982   1.499   2.642   1.759 -0.2035  0.2093 -0.4528
   20UNL    H17  983   1.756   2.769   1.852 -0.3817  1.3042 -1.9520
   20UNL    H18  984   1.591   2.842   1.851 -1.9668  0.3862 -0.1840
   20UNL    H19  985   1.671   2.809   1.709 -1.1377  2.3472  2.4862
   20UNL    H20  986   1.680   2.604   2.002 -3.3078  2.3570  0.6942
   20UNL    H21  987   1.581   2.474   1.962  1.0666  5.5654  1.1780
   20UNL    H22  988   1.486   2.737   2.057 -1.5151  0.0679  0.7715
   20UNL    H23  989   1.442   2.633   2.271  0.5941  1.9863  0.3200
   20UNL    H24  990   1.581   2.533   2.210 -3.0006  0.8116 -3.0722
   20UNL    H25  991   1.428   2.471   2.209  3.3042  0.8186  1.3594
   20UNL    H26  992   1.311   2.503   1.976 -0.8738 -0.0096 -3.5941
   20UNL    H27  993   1.339   2.662   1.875 -1.3542  0.7869 -0.3774
   20UNL    H28  994   1.210   2.636   2.158  0.2458 -0.4442  2.2458
   20UNL    H29  995   1.326   2.846   2.125  2.0569  1.2675  2.6600
   20UNL    H30  996   1.156   2.873   2.146 -0.5414  1.2991  0.3555
   20UNL    H31  997   1.234   2.875   1.987  3.5094 -0.0516  0.5300
   20UNL    H32  998   1.074   2.681   1.892 -1.2602 -1.2781 -1.1328
   20UNL    H33  999   1.068   2.522   1.982 -2.2335  1.0292 -2.1211
   20UNL    H34 1000   1.002   2.666   2.052 -1.7320 -3.2521  1.3223
   2.38024   2.37591   2.38484
